;
;   File g4.5Ocore_cooh_petim.itp  was generated
;   By user: sairam (1000)
;   On host: sairam
;   At date: Mon. April  1 10:43:53 2024
;
;   This is a standalone topology file
;
;   Created by:
;   ParmEd:       amb2gro_top_gro.py, VERSION 3.4.1
;   Executable:   amb2gro_top_gro.py
;   Library dir:  /usr/local/gromacs/share/gromacs/top
;   Command line:
;     ./amb2gro_top_gro.py -p g4.5Ocore_cooh_petim.prmtop -c g4.5Ocore_cooh_petim.inpcrd -t g4.5Ocore_cooh_petim.itp -g g4.5Ocore_cooh_petim.gro -b g4.5Ocore_cooh_petim.pdb
;

;[ defaults ]
;; nbfunc        comb-rule       gen-pairs       fudgeLJ fudgeQQ
;1               2               yes             0.5          0.83333333  
;
;[ atomtypes ]
;; name    at.num    mass    charge ptype  sigma      epsilon
;os             8  16.000000  0.00000000  A     0.30000123        0.71128
;c3             6  12.010000  0.00000000  A     0.33996695      0.4577296
;h1             1   1.008000  0.00000000  A      0.2471353      0.0656888
;hc             1   1.008000  0.00000000  A     0.26495328      0.0656888
;n3             7  14.010000  0.00000000  A     0.32499985        0.71128
;c              6  12.010000  0.00000000  A     0.33996695       0.359824
;o              8  16.000000  0.00000000  A     0.29599219        0.87864
;oh             8  16.000000  0.00000000  A     0.30664734      0.8803136
;ho             1   1.008000  0.00000000  A              0              0


[ moleculetype ]
; Name            nrexcl
g4.5Ocore_cooh_petim          3

[ atoms ]
;   nr       type  resnr residue  atom   cgnr    charge       mass  typeB    chargeB      massB
; residue    1 aaa rtp aaa q -0.0
    1         os      1    aaa     O1      1 -0.43807400  16.000000   ; qtot -0.438074
    2         c3      1    aaa     C1      2 0.04509800  12.010000   ; qtot -0.392976
    3         h1      1    aaa     H1      3 0.04771700   1.008000   ; qtot -0.345259
    4         h1      1    aaa     H2      4 0.04771700   1.008000   ; qtot -0.297542
    5         c3      1    aaa     C2      5 0.04509800  12.010000   ; qtot -0.252444
    6         h1      1    aaa     H3      6 0.04771700   1.008000   ; qtot -0.204727
    7         h1      1    aaa     H4      7 0.04771700   1.008000   ; qtot -0.157010
    8         c3      1    aaa     C3      8 0.05658600  12.010000   ; qtot -0.100424
    9         hc      1    aaa     H5      9 0.04933800   1.008000   ; qtot -0.051086
   10         hc      1    aaa     H6     10 0.04933800   1.008000   ; qtot -0.001748
   11         c3      1    aaa     C4     11 0.05658600  12.010000   ; qtot 0.054838
   12         hc      1    aaa     H7     12 0.04933800   1.008000   ; qtot 0.104176
   13         hc      1    aaa     H8     13 0.04933800   1.008000   ; qtot 0.153514
   14         c3      1    aaa     C5     14 0.00989700  12.010000   ; qtot 0.163411
   15         h1      1    aaa     H9     15 0.04845500   1.008000   ; qtot 0.211866
   16         h1      1    aaa    H10     16 0.04845500   1.008000   ; qtot 0.260321
   17         c3      1    aaa     C6     17 0.00989700  12.010000   ; qtot 0.270218
   18         h1      1    aaa    H11     18 0.04845500   1.008000   ; qtot 0.318673
   19         h1      1    aaa    H12     19 0.04845500   1.008000   ; qtot 0.367128
   20         n3      1    aaa     N1     20 -0.59936800  14.010000   ; qtot -0.232240
   21         n3      1    aaa     N2     21 -0.59936800  14.010000   ; qtot -0.831608
   22         c3      1    aaa     C7     22 0.08030200  12.010000   ; qtot -0.751306
   23         h1      1    aaa    H13     23 0.05071600   1.008000   ; qtot -0.700590
   24         h1      1    aaa    H14     24 0.05071600   1.008000   ; qtot -0.649874
   25         c3      1    aaa     C8     25 0.08030200  12.010000   ; qtot -0.569572
   26         h1      1    aaa    H15     26 0.05071600   1.008000   ; qtot -0.518856
   27         h1      1    aaa    H16     27 0.05071600   1.008000   ; qtot -0.468140
   28         c3      1    aaa     C9     28 0.08030200  12.010000   ; qtot -0.387838
   29         h1      1    aaa    H17     29 0.05071600   1.008000   ; qtot -0.337122
   30         h1      1    aaa    H18     30 0.05071600   1.008000   ; qtot -0.286406
   31         c3      1    aaa    C10     31 0.08030200  12.010000   ; qtot -0.206104
   32         h1      1    aaa    H19     32 0.05071600   1.008000   ; qtot -0.155388
   33         h1      1    aaa    H20     33 0.05071600   1.008000   ; qtot -0.104672
   34         c3      1    aaa    C11     34 0.10287800  12.010000   ; qtot -0.001794
   35         hc      1    aaa    H21     35 0.06787400   1.008000   ; qtot 0.066080
   36         hc      1    aaa    H22     36 0.06787400   1.008000   ; qtot 0.133954
   37         c3      1    aaa    C12     37 0.10287800  12.010000   ; qtot 0.236832
   38         hc      1    aaa    H23     38 0.06787400   1.008000   ; qtot 0.304706
   39         hc      1    aaa    H24     39 0.06787400   1.008000   ; qtot 0.372580
   40         c3      1    aaa    C13     40 0.10287800  12.010000   ; qtot 0.475458
   41         hc      1    aaa    H25     41 0.06787400   1.008000   ; qtot 0.543332
   42         hc      1    aaa    H26     42 0.06787400   1.008000   ; qtot 0.611206
   43         c3      1    aaa    C14     43 0.10287800  12.010000   ; qtot 0.714084
   44         hc      1    aaa    H27     44 0.06787400   1.008000   ; qtot 0.781958
   45         hc      1    aaa    H28     45 0.06787400   1.008000   ; qtot 0.849832
   46         c3      1    aaa    C15     46 -0.72585200  12.010000   ; qtot 0.123980
   47         h1      1    aaa    H29     47 0.25669700   1.008000   ; qtot 0.380677
   48         h1      1    aaa    H30     48 0.25669700   1.008000   ; qtot 0.637374
   49         c3      1    aaa    C16     49 -0.72585200  12.010000   ; qtot -0.088478
   50         h1      1    aaa    H31     50 0.25669700   1.008000   ; qtot 0.168219
   51         h1      1    aaa    H32     51 0.25669700   1.008000   ; qtot 0.424916
   52         c3      1    aaa    C17     52 -0.72585200  12.010000   ; qtot -0.300936
   53         h1      1    aaa    H33     53 0.25669700   1.008000   ; qtot -0.044239
   54         h1      1    aaa    H34     54 0.25669700   1.008000   ; qtot 0.212458
   55         c3      1    aaa    C18     55 -0.72585200  12.010000   ; qtot -0.513394
   56         h1      1    aaa    H35     56 0.25669700   1.008000   ; qtot -0.256697
   57         h1      1    aaa    H36     57 0.25669700   1.008000   ; qtot -0.000000
; residue    2 bbb rtp bbb q -0.0
   58         n3      2    bbb     N1     58 -0.59685800  14.010000   ; qtot -0.596858
   59         c3      2    bbb     C1     59 0.10137000  12.010000   ; qtot -0.495488
   60         h1      2    bbb     H1     60 0.04411300   1.008000   ; qtot -0.451375
   61         h1      2    bbb     H2     61 0.04411300   1.008000   ; qtot -0.407262
   62         c3      2    bbb     C2     62 0.10137000  12.010000   ; qtot -0.305892
   63         h1      2    bbb     H3     63 0.04411300   1.008000   ; qtot -0.261779
   64         h1      2    bbb     H4     64 0.04411300   1.008000   ; qtot -0.217666
   65         c3      2    bbb     C3     65 -0.00195300  12.010000   ; qtot -0.219619
   66         h1      2    bbb     H5     66 0.05064400   1.008000   ; qtot -0.168975
   67         h1      2    bbb     H6     67 0.05064400   1.008000   ; qtot -0.118331
   68         c3      2    bbb     C4     68 -0.01612100  12.010000   ; qtot -0.134452
   69         hc      2    bbb     H7     69 0.04936100   1.008000   ; qtot -0.085091
   70         hc      2    bbb     H8     70 0.04936100   1.008000   ; qtot -0.035730
   71         c3      2    bbb     C5     71 0.11363000  12.010000   ; qtot 0.077900
   72         hc      2    bbb     H9     72 0.06265900   1.008000   ; qtot 0.140559
   73         hc      2    bbb    H10     73 0.06265900   1.008000   ; qtot 0.203218
   74         c3      2    bbb     C6     74 0.11363000  12.010000   ; qtot 0.316848
   75         hc      2    bbb    H11     75 0.06265900   1.008000   ; qtot 0.379507
   76         hc      2    bbb    H12     76 0.06265900   1.008000   ; qtot 0.442166
   77         c3      2    bbb     C7     77 0.05858200  12.010000   ; qtot 0.500748
   78         h1      2    bbb    H13     78 0.06123400   1.008000   ; qtot 0.561982
   79         h1      2    bbb    H14     79 0.06123400   1.008000   ; qtot 0.623216
   80         c3      2    bbb     C8     80 -0.72423400  12.010000   ; qtot -0.101018
   81         h1      2    bbb    H15     81 0.25637600   1.008000   ; qtot 0.155358
   82         h1      2    bbb    H16     82 0.25637600   1.008000   ; qtot 0.411734
   83         c3      2    bbb     C9     83 -0.72423400  12.010000   ; qtot -0.312500
   84         h1      2    bbb    H17     84 0.25637600   1.008000   ; qtot -0.056124
   85         h1      2    bbb    H18     85 0.25637600   1.008000   ; qtot 0.200252
   86         os      2    bbb     O1     86 -0.20025300  16.000000   ; qtot -0.000001
; residue    3 bbb rtp bbb q -0.0
   87         n3      3    bbb     N1     87 -0.59685800  14.010000   ; qtot -0.596859
   88         c3      3    bbb     C1     88 0.10137000  12.010000   ; qtot -0.495489
   89         h1      3    bbb     H1     89 0.04411300   1.008000   ; qtot -0.451376
   90         h1      3    bbb     H2     90 0.04411300   1.008000   ; qtot -0.407263
   91         c3      3    bbb     C2     91 0.10137000  12.010000   ; qtot -0.305893
   92         h1      3    bbb     H3     92 0.04411300   1.008000   ; qtot -0.261780
   93         h1      3    bbb     H4     93 0.04411300   1.008000   ; qtot -0.217667
   94         c3      3    bbb     C3     94 -0.00195300  12.010000   ; qtot -0.219620
   95         h1      3    bbb     H5     95 0.05064400   1.008000   ; qtot -0.168976
   96         h1      3    bbb     H6     96 0.05064400   1.008000   ; qtot -0.118332
   97         c3      3    bbb     C4     97 -0.01612100  12.010000   ; qtot -0.134453
   98         hc      3    bbb     H7     98 0.04936100   1.008000   ; qtot -0.085092
   99         hc      3    bbb     H8     99 0.04936100   1.008000   ; qtot -0.035731
  100         c3      3    bbb     C5    100 0.11363000  12.010000   ; qtot 0.077899
  101         hc      3    bbb     H9    101 0.06265900   1.008000   ; qtot 0.140558
  102         hc      3    bbb    H10    102 0.06265900   1.008000   ; qtot 0.203217
  103         c3      3    bbb     C6    103 0.11363000  12.010000   ; qtot 0.316847
  104         hc      3    bbb    H11    104 0.06265900   1.008000   ; qtot 0.379506
  105         hc      3    bbb    H12    105 0.06265900   1.008000   ; qtot 0.442165
  106         c3      3    bbb     C7    106 0.05858200  12.010000   ; qtot 0.500747
  107         h1      3    bbb    H13    107 0.06123400   1.008000   ; qtot 0.561981
  108         h1      3    bbb    H14    108 0.06123400   1.008000   ; qtot 0.623215
  109         c3      3    bbb     C8    109 -0.72423400  12.010000   ; qtot -0.101019
  110         h1      3    bbb    H15    110 0.25637600   1.008000   ; qtot 0.155357
  111         h1      3    bbb    H16    111 0.25637600   1.008000   ; qtot 0.411733
  112         c3      3    bbb     C9    112 -0.72423400  12.010000   ; qtot -0.312501
  113         h1      3    bbb    H17    113 0.25637600   1.008000   ; qtot -0.056125
  114         h1      3    bbb    H18    114 0.25637600   1.008000   ; qtot 0.200251
  115         os      3    bbb     O1    115 -0.20025300  16.000000   ; qtot -0.000002
; residue    4 bbb rtp bbb q -0.0
  116         n3      4    bbb     N1    116 -0.59685800  14.010000   ; qtot -0.596860
  117         c3      4    bbb     C1    117 0.10137000  12.010000   ; qtot -0.495490
  118         h1      4    bbb     H1    118 0.04411300   1.008000   ; qtot -0.451377
  119         h1      4    bbb     H2    119 0.04411300   1.008000   ; qtot -0.407264
  120         c3      4    bbb     C2    120 0.10137000  12.010000   ; qtot -0.305894
  121         h1      4    bbb     H3    121 0.04411300   1.008000   ; qtot -0.261781
  122         h1      4    bbb     H4    122 0.04411300   1.008000   ; qtot -0.217668
  123         c3      4    bbb     C3    123 -0.00195300  12.010000   ; qtot -0.219621
  124         h1      4    bbb     H5    124 0.05064400   1.008000   ; qtot -0.168977
  125         h1      4    bbb     H6    125 0.05064400   1.008000   ; qtot -0.118333
  126         c3      4    bbb     C4    126 -0.01612100  12.010000   ; qtot -0.134454
  127         hc      4    bbb     H7    127 0.04936100   1.008000   ; qtot -0.085093
  128         hc      4    bbb     H8    128 0.04936100   1.008000   ; qtot -0.035732
  129         c3      4    bbb     C5    129 0.11363000  12.010000   ; qtot 0.077898
  130         hc      4    bbb     H9    130 0.06265900   1.008000   ; qtot 0.140557
  131         hc      4    bbb    H10    131 0.06265900   1.008000   ; qtot 0.203216
  132         c3      4    bbb     C6    132 0.11363000  12.010000   ; qtot 0.316846
  133         hc      4    bbb    H11    133 0.06265900   1.008000   ; qtot 0.379505
  134         hc      4    bbb    H12    134 0.06265900   1.008000   ; qtot 0.442164
  135         c3      4    bbb     C7    135 0.05858200  12.010000   ; qtot 0.500746
  136         h1      4    bbb    H13    136 0.06123400   1.008000   ; qtot 0.561980
  137         h1      4    bbb    H14    137 0.06123400   1.008000   ; qtot 0.623214
  138         c3      4    bbb     C8    138 -0.72423400  12.010000   ; qtot -0.101020
  139         h1      4    bbb    H15    139 0.25637600   1.008000   ; qtot 0.155356
  140         h1      4    bbb    H16    140 0.25637600   1.008000   ; qtot 0.411732
  141         c3      4    bbb     C9    141 -0.72423400  12.010000   ; qtot -0.312502
  142         h1      4    bbb    H17    142 0.25637600   1.008000   ; qtot -0.056126
  143         h1      4    bbb    H18    143 0.25637600   1.008000   ; qtot 0.200250
  144         os      4    bbb     O1    144 -0.20025300  16.000000   ; qtot -0.000003
; residue    5 bbb rtp bbb q -0.0
  145         n3      5    bbb     N1    145 -0.59685800  14.010000   ; qtot -0.596861
  146         c3      5    bbb     C1    146 0.10137000  12.010000   ; qtot -0.495491
  147         h1      5    bbb     H1    147 0.04411300   1.008000   ; qtot -0.451378
  148         h1      5    bbb     H2    148 0.04411300   1.008000   ; qtot -0.407265
  149         c3      5    bbb     C2    149 0.10137000  12.010000   ; qtot -0.305895
  150         h1      5    bbb     H3    150 0.04411300   1.008000   ; qtot -0.261782
  151         h1      5    bbb     H4    151 0.04411300   1.008000   ; qtot -0.217669
  152         c3      5    bbb     C3    152 -0.00195300  12.010000   ; qtot -0.219622
  153         h1      5    bbb     H5    153 0.05064400   1.008000   ; qtot -0.168978
  154         h1      5    bbb     H6    154 0.05064400   1.008000   ; qtot -0.118334
  155         c3      5    bbb     C4    155 -0.01612100  12.010000   ; qtot -0.134455
  156         hc      5    bbb     H7    156 0.04936100   1.008000   ; qtot -0.085094
  157         hc      5    bbb     H8    157 0.04936100   1.008000   ; qtot -0.035733
  158         c3      5    bbb     C5    158 0.11363000  12.010000   ; qtot 0.077897
  159         hc      5    bbb     H9    159 0.06265900   1.008000   ; qtot 0.140556
  160         hc      5    bbb    H10    160 0.06265900   1.008000   ; qtot 0.203215
  161         c3      5    bbb     C6    161 0.11363000  12.010000   ; qtot 0.316845
  162         hc      5    bbb    H11    162 0.06265900   1.008000   ; qtot 0.379504
  163         hc      5    bbb    H12    163 0.06265900   1.008000   ; qtot 0.442163
  164         c3      5    bbb     C7    164 0.05858200  12.010000   ; qtot 0.500745
  165         h1      5    bbb    H13    165 0.06123400   1.008000   ; qtot 0.561979
  166         h1      5    bbb    H14    166 0.06123400   1.008000   ; qtot 0.623213
  167         c3      5    bbb     C8    167 -0.72423400  12.010000   ; qtot -0.101021
  168         h1      5    bbb    H15    168 0.25637600   1.008000   ; qtot 0.155355
  169         h1      5    bbb    H16    169 0.25637600   1.008000   ; qtot 0.411731
  170         c3      5    bbb     C9    170 -0.72423400  12.010000   ; qtot -0.312503
  171         h1      5    bbb    H17    171 0.25637600   1.008000   ; qtot -0.056127
  172         h1      5    bbb    H18    172 0.25637600   1.008000   ; qtot 0.200249
  173         os      5    bbb     O1    173 -0.20025300  16.000000   ; qtot -0.000004
; residue    6 bbb rtp bbb q -0.0
  174         n3      6    bbb     N1    174 -0.59685800  14.010000   ; qtot -0.596862
  175         c3      6    bbb     C1    175 0.10137000  12.010000   ; qtot -0.495492
  176         h1      6    bbb     H1    176 0.04411300   1.008000   ; qtot -0.451379
  177         h1      6    bbb     H2    177 0.04411300   1.008000   ; qtot -0.407266
  178         c3      6    bbb     C2    178 0.10137000  12.010000   ; qtot -0.305896
  179         h1      6    bbb     H3    179 0.04411300   1.008000   ; qtot -0.261783
  180         h1      6    bbb     H4    180 0.04411300   1.008000   ; qtot -0.217670
  181         c3      6    bbb     C3    181 -0.00195300  12.010000   ; qtot -0.219623
  182         h1      6    bbb     H5    182 0.05064400   1.008000   ; qtot -0.168979
  183         h1      6    bbb     H6    183 0.05064400   1.008000   ; qtot -0.118335
  184         c3      6    bbb     C4    184 -0.01612100  12.010000   ; qtot -0.134456
  185         hc      6    bbb     H7    185 0.04936100   1.008000   ; qtot -0.085095
  186         hc      6    bbb     H8    186 0.04936100   1.008000   ; qtot -0.035734
  187         c3      6    bbb     C5    187 0.11363000  12.010000   ; qtot 0.077896
  188         hc      6    bbb     H9    188 0.06265900   1.008000   ; qtot 0.140555
  189         hc      6    bbb    H10    189 0.06265900   1.008000   ; qtot 0.203214
  190         c3      6    bbb     C6    190 0.11363000  12.010000   ; qtot 0.316844
  191         hc      6    bbb    H11    191 0.06265900   1.008000   ; qtot 0.379503
  192         hc      6    bbb    H12    192 0.06265900   1.008000   ; qtot 0.442162
  193         c3      6    bbb     C7    193 0.05858200  12.010000   ; qtot 0.500744
  194         h1      6    bbb    H13    194 0.06123400   1.008000   ; qtot 0.561978
  195         h1      6    bbb    H14    195 0.06123400   1.008000   ; qtot 0.623212
  196         c3      6    bbb     C8    196 -0.72423400  12.010000   ; qtot -0.101022
  197         h1      6    bbb    H15    197 0.25637600   1.008000   ; qtot 0.155354
  198         h1      6    bbb    H16    198 0.25637600   1.008000   ; qtot 0.411730
  199         c3      6    bbb     C9    199 -0.72423400  12.010000   ; qtot -0.312504
  200         h1      6    bbb    H17    200 0.25637600   1.008000   ; qtot -0.056128
  201         h1      6    bbb    H18    201 0.25637600   1.008000   ; qtot 0.200248
  202         os      6    bbb     O1    202 -0.20025300  16.000000   ; qtot -0.000005
; residue    7 bbb rtp bbb q -0.0
  203         n3      7    bbb     N1    203 -0.59685800  14.010000   ; qtot -0.596863
  204         c3      7    bbb     C1    204 0.10137000  12.010000   ; qtot -0.495493
  205         h1      7    bbb     H1    205 0.04411300   1.008000   ; qtot -0.451380
  206         h1      7    bbb     H2    206 0.04411300   1.008000   ; qtot -0.407267
  207         c3      7    bbb     C2    207 0.10137000  12.010000   ; qtot -0.305897
  208         h1      7    bbb     H3    208 0.04411300   1.008000   ; qtot -0.261784
  209         h1      7    bbb     H4    209 0.04411300   1.008000   ; qtot -0.217671
  210         c3      7    bbb     C3    210 -0.00195300  12.010000   ; qtot -0.219624
  211         h1      7    bbb     H5    211 0.05064400   1.008000   ; qtot -0.168980
  212         h1      7    bbb     H6    212 0.05064400   1.008000   ; qtot -0.118336
  213         c3      7    bbb     C4    213 -0.01612100  12.010000   ; qtot -0.134457
  214         hc      7    bbb     H7    214 0.04936100   1.008000   ; qtot -0.085096
  215         hc      7    bbb     H8    215 0.04936100   1.008000   ; qtot -0.035735
  216         c3      7    bbb     C5    216 0.11363000  12.010000   ; qtot 0.077895
  217         hc      7    bbb     H9    217 0.06265900   1.008000   ; qtot 0.140554
  218         hc      7    bbb    H10    218 0.06265900   1.008000   ; qtot 0.203213
  219         c3      7    bbb     C6    219 0.11363000  12.010000   ; qtot 0.316843
  220         hc      7    bbb    H11    220 0.06265900   1.008000   ; qtot 0.379502
  221         hc      7    bbb    H12    221 0.06265900   1.008000   ; qtot 0.442161
  222         c3      7    bbb     C7    222 0.05858200  12.010000   ; qtot 0.500743
  223         h1      7    bbb    H13    223 0.06123400   1.008000   ; qtot 0.561977
  224         h1      7    bbb    H14    224 0.06123400   1.008000   ; qtot 0.623211
  225         c3      7    bbb     C8    225 -0.72423400  12.010000   ; qtot -0.101023
  226         h1      7    bbb    H15    226 0.25637600   1.008000   ; qtot 0.155353
  227         h1      7    bbb    H16    227 0.25637600   1.008000   ; qtot 0.411729
  228         c3      7    bbb     C9    228 -0.72423400  12.010000   ; qtot -0.312505
  229         h1      7    bbb    H17    229 0.25637600   1.008000   ; qtot -0.056129
  230         h1      7    bbb    H18    230 0.25637600   1.008000   ; qtot 0.200247
  231         os      7    bbb     O1    231 -0.20025300  16.000000   ; qtot -0.000006
; residue    8 bbb rtp bbb q -0.0
  232         n3      8    bbb     N1    232 -0.59685800  14.010000   ; qtot -0.596864
  233         c3      8    bbb     C1    233 0.10137000  12.010000   ; qtot -0.495494
  234         h1      8    bbb     H1    234 0.04411300   1.008000   ; qtot -0.451381
  235         h1      8    bbb     H2    235 0.04411300   1.008000   ; qtot -0.407268
  236         c3      8    bbb     C2    236 0.10137000  12.010000   ; qtot -0.305898
  237         h1      8    bbb     H3    237 0.04411300   1.008000   ; qtot -0.261785
  238         h1      8    bbb     H4    238 0.04411300   1.008000   ; qtot -0.217672
  239         c3      8    bbb     C3    239 -0.00195300  12.010000   ; qtot -0.219625
  240         h1      8    bbb     H5    240 0.05064400   1.008000   ; qtot -0.168981
  241         h1      8    bbb     H6    241 0.05064400   1.008000   ; qtot -0.118337
  242         c3      8    bbb     C4    242 -0.01612100  12.010000   ; qtot -0.134458
  243         hc      8    bbb     H7    243 0.04936100   1.008000   ; qtot -0.085097
  244         hc      8    bbb     H8    244 0.04936100   1.008000   ; qtot -0.035736
  245         c3      8    bbb     C5    245 0.11363000  12.010000   ; qtot 0.077894
  246         hc      8    bbb     H9    246 0.06265900   1.008000   ; qtot 0.140553
  247         hc      8    bbb    H10    247 0.06265900   1.008000   ; qtot 0.203212
  248         c3      8    bbb     C6    248 0.11363000  12.010000   ; qtot 0.316842
  249         hc      8    bbb    H11    249 0.06265900   1.008000   ; qtot 0.379501
  250         hc      8    bbb    H12    250 0.06265900   1.008000   ; qtot 0.442160
  251         c3      8    bbb     C7    251 0.05858200  12.010000   ; qtot 0.500742
  252         h1      8    bbb    H13    252 0.06123400   1.008000   ; qtot 0.561976
  253         h1      8    bbb    H14    253 0.06123400   1.008000   ; qtot 0.623210
  254         c3      8    bbb     C8    254 -0.72423400  12.010000   ; qtot -0.101024
  255         h1      8    bbb    H15    255 0.25637600   1.008000   ; qtot 0.155352
  256         h1      8    bbb    H16    256 0.25637600   1.008000   ; qtot 0.411728
  257         c3      8    bbb     C9    257 -0.72423400  12.010000   ; qtot -0.312506
  258         h1      8    bbb    H17    258 0.25637600   1.008000   ; qtot -0.056130
  259         h1      8    bbb    H18    259 0.25637600   1.008000   ; qtot 0.200246
  260         os      8    bbb     O1    260 -0.20025300  16.000000   ; qtot -0.000007
; residue    9 bbb rtp bbb q -0.0
  261         n3      9    bbb     N1    261 -0.59685800  14.010000   ; qtot -0.596865
  262         c3      9    bbb     C1    262 0.10137000  12.010000   ; qtot -0.495495
  263         h1      9    bbb     H1    263 0.04411300   1.008000   ; qtot -0.451382
  264         h1      9    bbb     H2    264 0.04411300   1.008000   ; qtot -0.407269
  265         c3      9    bbb     C2    265 0.10137000  12.010000   ; qtot -0.305899
  266         h1      9    bbb     H3    266 0.04411300   1.008000   ; qtot -0.261786
  267         h1      9    bbb     H4    267 0.04411300   1.008000   ; qtot -0.217673
  268         c3      9    bbb     C3    268 -0.00195300  12.010000   ; qtot -0.219626
  269         h1      9    bbb     H5    269 0.05064400   1.008000   ; qtot -0.168982
  270         h1      9    bbb     H6    270 0.05064400   1.008000   ; qtot -0.118338
  271         c3      9    bbb     C4    271 -0.01612100  12.010000   ; qtot -0.134459
  272         hc      9    bbb     H7    272 0.04936100   1.008000   ; qtot -0.085098
  273         hc      9    bbb     H8    273 0.04936100   1.008000   ; qtot -0.035737
  274         c3      9    bbb     C5    274 0.11363000  12.010000   ; qtot 0.077893
  275         hc      9    bbb     H9    275 0.06265900   1.008000   ; qtot 0.140552
  276         hc      9    bbb    H10    276 0.06265900   1.008000   ; qtot 0.203211
  277         c3      9    bbb     C6    277 0.11363000  12.010000   ; qtot 0.316841
  278         hc      9    bbb    H11    278 0.06265900   1.008000   ; qtot 0.379500
  279         hc      9    bbb    H12    279 0.06265900   1.008000   ; qtot 0.442159
  280         c3      9    bbb     C7    280 0.05858200  12.010000   ; qtot 0.500741
  281         h1      9    bbb    H13    281 0.06123400   1.008000   ; qtot 0.561975
  282         h1      9    bbb    H14    282 0.06123400   1.008000   ; qtot 0.623209
  283         c3      9    bbb     C8    283 -0.72423400  12.010000   ; qtot -0.101025
  284         h1      9    bbb    H15    284 0.25637600   1.008000   ; qtot 0.155351
  285         h1      9    bbb    H16    285 0.25637600   1.008000   ; qtot 0.411727
  286         c3      9    bbb     C9    286 -0.72423400  12.010000   ; qtot -0.312507
  287         h1      9    bbb    H17    287 0.25637600   1.008000   ; qtot -0.056131
  288         h1      9    bbb    H18    288 0.25637600   1.008000   ; qtot 0.200245
  289         os      9    bbb     O1    289 -0.20025300  16.000000   ; qtot -0.000008
; residue   10 bbb rtp bbb q -0.0
  290         n3     10    bbb     N1    290 -0.59685800  14.010000   ; qtot -0.596866
  291         c3     10    bbb     C1    291 0.10137000  12.010000   ; qtot -0.495496
  292         h1     10    bbb     H1    292 0.04411300   1.008000   ; qtot -0.451383
  293         h1     10    bbb     H2    293 0.04411300   1.008000   ; qtot -0.407270
  294         c3     10    bbb     C2    294 0.10137000  12.010000   ; qtot -0.305900
  295         h1     10    bbb     H3    295 0.04411300   1.008000   ; qtot -0.261787
  296         h1     10    bbb     H4    296 0.04411300   1.008000   ; qtot -0.217674
  297         c3     10    bbb     C3    297 -0.00195300  12.010000   ; qtot -0.219627
  298         h1     10    bbb     H5    298 0.05064400   1.008000   ; qtot -0.168983
  299         h1     10    bbb     H6    299 0.05064400   1.008000   ; qtot -0.118339
  300         c3     10    bbb     C4    300 -0.01612100  12.010000   ; qtot -0.134460
  301         hc     10    bbb     H7    301 0.04936100   1.008000   ; qtot -0.085099
  302         hc     10    bbb     H8    302 0.04936100   1.008000   ; qtot -0.035738
  303         c3     10    bbb     C5    303 0.11363000  12.010000   ; qtot 0.077892
  304         hc     10    bbb     H9    304 0.06265900   1.008000   ; qtot 0.140551
  305         hc     10    bbb    H10    305 0.06265900   1.008000   ; qtot 0.203210
  306         c3     10    bbb     C6    306 0.11363000  12.010000   ; qtot 0.316840
  307         hc     10    bbb    H11    307 0.06265900   1.008000   ; qtot 0.379499
  308         hc     10    bbb    H12    308 0.06265900   1.008000   ; qtot 0.442158
  309         c3     10    bbb     C7    309 0.05858200  12.010000   ; qtot 0.500740
  310         h1     10    bbb    H13    310 0.06123400   1.008000   ; qtot 0.561974
  311         h1     10    bbb    H14    311 0.06123400   1.008000   ; qtot 0.623208
  312         c3     10    bbb     C8    312 -0.72423400  12.010000   ; qtot -0.101026
  313         h1     10    bbb    H15    313 0.25637600   1.008000   ; qtot 0.155350
  314         h1     10    bbb    H16    314 0.25637600   1.008000   ; qtot 0.411726
  315         c3     10    bbb     C9    315 -0.72423400  12.010000   ; qtot -0.312508
  316         h1     10    bbb    H17    316 0.25637600   1.008000   ; qtot -0.056132
  317         h1     10    bbb    H18    317 0.25637600   1.008000   ; qtot 0.200244
  318         os     10    bbb     O1    318 -0.20025300  16.000000   ; qtot -0.000009
; residue   11 bbb rtp bbb q -0.0
  319         n3     11    bbb     N1    319 -0.59685800  14.010000   ; qtot -0.596867
  320         c3     11    bbb     C1    320 0.10137000  12.010000   ; qtot -0.495497
  321         h1     11    bbb     H1    321 0.04411300   1.008000   ; qtot -0.451384
  322         h1     11    bbb     H2    322 0.04411300   1.008000   ; qtot -0.407271
  323         c3     11    bbb     C2    323 0.10137000  12.010000   ; qtot -0.305901
  324         h1     11    bbb     H3    324 0.04411300   1.008000   ; qtot -0.261788
  325         h1     11    bbb     H4    325 0.04411300   1.008000   ; qtot -0.217675
  326         c3     11    bbb     C3    326 -0.00195300  12.010000   ; qtot -0.219628
  327         h1     11    bbb     H5    327 0.05064400   1.008000   ; qtot -0.168984
  328         h1     11    bbb     H6    328 0.05064400   1.008000   ; qtot -0.118340
  329         c3     11    bbb     C4    329 -0.01612100  12.010000   ; qtot -0.134461
  330         hc     11    bbb     H7    330 0.04936100   1.008000   ; qtot -0.085100
  331         hc     11    bbb     H8    331 0.04936100   1.008000   ; qtot -0.035739
  332         c3     11    bbb     C5    332 0.11363000  12.010000   ; qtot 0.077891
  333         hc     11    bbb     H9    333 0.06265900   1.008000   ; qtot 0.140550
  334         hc     11    bbb    H10    334 0.06265900   1.008000   ; qtot 0.203209
  335         c3     11    bbb     C6    335 0.11363000  12.010000   ; qtot 0.316839
  336         hc     11    bbb    H11    336 0.06265900   1.008000   ; qtot 0.379498
  337         hc     11    bbb    H12    337 0.06265900   1.008000   ; qtot 0.442157
  338         c3     11    bbb     C7    338 0.05858200  12.010000   ; qtot 0.500739
  339         h1     11    bbb    H13    339 0.06123400   1.008000   ; qtot 0.561973
  340         h1     11    bbb    H14    340 0.06123400   1.008000   ; qtot 0.623207
  341         c3     11    bbb     C8    341 -0.72423400  12.010000   ; qtot -0.101027
  342         h1     11    bbb    H15    342 0.25637600   1.008000   ; qtot 0.155349
  343         h1     11    bbb    H16    343 0.25637600   1.008000   ; qtot 0.411725
  344         c3     11    bbb     C9    344 -0.72423400  12.010000   ; qtot -0.312509
  345         h1     11    bbb    H17    345 0.25637600   1.008000   ; qtot -0.056133
  346         h1     11    bbb    H18    346 0.25637600   1.008000   ; qtot 0.200243
  347         os     11    bbb     O1    347 -0.20025300  16.000000   ; qtot -0.000010
; residue   12 bbb rtp bbb q -0.0
  348         n3     12    bbb     N1    348 -0.59685800  14.010000   ; qtot -0.596868
  349         c3     12    bbb     C1    349 0.10137000  12.010000   ; qtot -0.495498
  350         h1     12    bbb     H1    350 0.04411300   1.008000   ; qtot -0.451385
  351         h1     12    bbb     H2    351 0.04411300   1.008000   ; qtot -0.407272
  352         c3     12    bbb     C2    352 0.10137000  12.010000   ; qtot -0.305902
  353         h1     12    bbb     H3    353 0.04411300   1.008000   ; qtot -0.261789
  354         h1     12    bbb     H4    354 0.04411300   1.008000   ; qtot -0.217676
  355         c3     12    bbb     C3    355 -0.00195300  12.010000   ; qtot -0.219629
  356         h1     12    bbb     H5    356 0.05064400   1.008000   ; qtot -0.168985
  357         h1     12    bbb     H6    357 0.05064400   1.008000   ; qtot -0.118341
  358         c3     12    bbb     C4    358 -0.01612100  12.010000   ; qtot -0.134462
  359         hc     12    bbb     H7    359 0.04936100   1.008000   ; qtot -0.085101
  360         hc     12    bbb     H8    360 0.04936100   1.008000   ; qtot -0.035740
  361         c3     12    bbb     C5    361 0.11363000  12.010000   ; qtot 0.077890
  362         hc     12    bbb     H9    362 0.06265900   1.008000   ; qtot 0.140549
  363         hc     12    bbb    H10    363 0.06265900   1.008000   ; qtot 0.203208
  364         c3     12    bbb     C6    364 0.11363000  12.010000   ; qtot 0.316838
  365         hc     12    bbb    H11    365 0.06265900   1.008000   ; qtot 0.379497
  366         hc     12    bbb    H12    366 0.06265900   1.008000   ; qtot 0.442156
  367         c3     12    bbb     C7    367 0.05858200  12.010000   ; qtot 0.500738
  368         h1     12    bbb    H13    368 0.06123400   1.008000   ; qtot 0.561972
  369         h1     12    bbb    H14    369 0.06123400   1.008000   ; qtot 0.623206
  370         c3     12    bbb     C8    370 -0.72423400  12.010000   ; qtot -0.101028
  371         h1     12    bbb    H15    371 0.25637600   1.008000   ; qtot 0.155348
  372         h1     12    bbb    H16    372 0.25637600   1.008000   ; qtot 0.411724
  373         c3     12    bbb     C9    373 -0.72423400  12.010000   ; qtot -0.312510
  374         h1     12    bbb    H17    374 0.25637600   1.008000   ; qtot -0.056134
  375         h1     12    bbb    H18    375 0.25637600   1.008000   ; qtot 0.200242
  376         os     12    bbb     O1    376 -0.20025300  16.000000   ; qtot -0.000011
; residue   13 bbb rtp bbb q -0.0
  377         n3     13    bbb     N1    377 -0.59685800  14.010000   ; qtot -0.596869
  378         c3     13    bbb     C1    378 0.10137000  12.010000   ; qtot -0.495499
  379         h1     13    bbb     H1    379 0.04411300   1.008000   ; qtot -0.451386
  380         h1     13    bbb     H2    380 0.04411300   1.008000   ; qtot -0.407273
  381         c3     13    bbb     C2    381 0.10137000  12.010000   ; qtot -0.305903
  382         h1     13    bbb     H3    382 0.04411300   1.008000   ; qtot -0.261790
  383         h1     13    bbb     H4    383 0.04411300   1.008000   ; qtot -0.217677
  384         c3     13    bbb     C3    384 -0.00195300  12.010000   ; qtot -0.219630
  385         h1     13    bbb     H5    385 0.05064400   1.008000   ; qtot -0.168986
  386         h1     13    bbb     H6    386 0.05064400   1.008000   ; qtot -0.118342
  387         c3     13    bbb     C4    387 -0.01612100  12.010000   ; qtot -0.134463
  388         hc     13    bbb     H7    388 0.04936100   1.008000   ; qtot -0.085102
  389         hc     13    bbb     H8    389 0.04936100   1.008000   ; qtot -0.035741
  390         c3     13    bbb     C5    390 0.11363000  12.010000   ; qtot 0.077889
  391         hc     13    bbb     H9    391 0.06265900   1.008000   ; qtot 0.140548
  392         hc     13    bbb    H10    392 0.06265900   1.008000   ; qtot 0.203207
  393         c3     13    bbb     C6    393 0.11363000  12.010000   ; qtot 0.316837
  394         hc     13    bbb    H11    394 0.06265900   1.008000   ; qtot 0.379496
  395         hc     13    bbb    H12    395 0.06265900   1.008000   ; qtot 0.442155
  396         c3     13    bbb     C7    396 0.05858200  12.010000   ; qtot 0.500737
  397         h1     13    bbb    H13    397 0.06123400   1.008000   ; qtot 0.561971
  398         h1     13    bbb    H14    398 0.06123400   1.008000   ; qtot 0.623205
  399         c3     13    bbb     C8    399 -0.72423400  12.010000   ; qtot -0.101029
  400         h1     13    bbb    H15    400 0.25637600   1.008000   ; qtot 0.155347
  401         h1     13    bbb    H16    401 0.25637600   1.008000   ; qtot 0.411723
  402         c3     13    bbb     C9    402 -0.72423400  12.010000   ; qtot -0.312511
  403         h1     13    bbb    H17    403 0.25637600   1.008000   ; qtot -0.056135
  404         h1     13    bbb    H18    404 0.25637600   1.008000   ; qtot 0.200241
  405         os     13    bbb     O1    405 -0.20025300  16.000000   ; qtot -0.000012
; residue   14 bbb rtp bbb q -0.0
  406         n3     14    bbb     N1    406 -0.59685800  14.010000   ; qtot -0.596870
  407         c3     14    bbb     C1    407 0.10137000  12.010000   ; qtot -0.495500
  408         h1     14    bbb     H1    408 0.04411300   1.008000   ; qtot -0.451387
  409         h1     14    bbb     H2    409 0.04411300   1.008000   ; qtot -0.407274
  410         c3     14    bbb     C2    410 0.10137000  12.010000   ; qtot -0.305904
  411         h1     14    bbb     H3    411 0.04411300   1.008000   ; qtot -0.261791
  412         h1     14    bbb     H4    412 0.04411300   1.008000   ; qtot -0.217678
  413         c3     14    bbb     C3    413 -0.00195300  12.010000   ; qtot -0.219631
  414         h1     14    bbb     H5    414 0.05064400   1.008000   ; qtot -0.168987
  415         h1     14    bbb     H6    415 0.05064400   1.008000   ; qtot -0.118343
  416         c3     14    bbb     C4    416 -0.01612100  12.010000   ; qtot -0.134464
  417         hc     14    bbb     H7    417 0.04936100   1.008000   ; qtot -0.085103
  418         hc     14    bbb     H8    418 0.04936100   1.008000   ; qtot -0.035742
  419         c3     14    bbb     C5    419 0.11363000  12.010000   ; qtot 0.077888
  420         hc     14    bbb     H9    420 0.06265900   1.008000   ; qtot 0.140547
  421         hc     14    bbb    H10    421 0.06265900   1.008000   ; qtot 0.203206
  422         c3     14    bbb     C6    422 0.11363000  12.010000   ; qtot 0.316836
  423         hc     14    bbb    H11    423 0.06265900   1.008000   ; qtot 0.379495
  424         hc     14    bbb    H12    424 0.06265900   1.008000   ; qtot 0.442154
  425         c3     14    bbb     C7    425 0.05858200  12.010000   ; qtot 0.500736
  426         h1     14    bbb    H13    426 0.06123400   1.008000   ; qtot 0.561970
  427         h1     14    bbb    H14    427 0.06123400   1.008000   ; qtot 0.623204
  428         c3     14    bbb     C8    428 -0.72423400  12.010000   ; qtot -0.101030
  429         h1     14    bbb    H15    429 0.25637600   1.008000   ; qtot 0.155346
  430         h1     14    bbb    H16    430 0.25637600   1.008000   ; qtot 0.411722
  431         c3     14    bbb     C9    431 -0.72423400  12.010000   ; qtot -0.312512
  432         h1     14    bbb    H17    432 0.25637600   1.008000   ; qtot -0.056136
  433         h1     14    bbb    H18    433 0.25637600   1.008000   ; qtot 0.200240
  434         os     14    bbb     O1    434 -0.20025300  16.000000   ; qtot -0.000013
; residue   15 bbb rtp bbb q -0.0
  435         n3     15    bbb     N1    435 -0.59685800  14.010000   ; qtot -0.596871
  436         c3     15    bbb     C1    436 0.10137000  12.010000   ; qtot -0.495501
  437         h1     15    bbb     H1    437 0.04411300   1.008000   ; qtot -0.451388
  438         h1     15    bbb     H2    438 0.04411300   1.008000   ; qtot -0.407275
  439         c3     15    bbb     C2    439 0.10137000  12.010000   ; qtot -0.305905
  440         h1     15    bbb     H3    440 0.04411300   1.008000   ; qtot -0.261792
  441         h1     15    bbb     H4    441 0.04411300   1.008000   ; qtot -0.217679
  442         c3     15    bbb     C3    442 -0.00195300  12.010000   ; qtot -0.219632
  443         h1     15    bbb     H5    443 0.05064400   1.008000   ; qtot -0.168988
  444         h1     15    bbb     H6    444 0.05064400   1.008000   ; qtot -0.118344
  445         c3     15    bbb     C4    445 -0.01612100  12.010000   ; qtot -0.134465
  446         hc     15    bbb     H7    446 0.04936100   1.008000   ; qtot -0.085104
  447         hc     15    bbb     H8    447 0.04936100   1.008000   ; qtot -0.035743
  448         c3     15    bbb     C5    448 0.11363000  12.010000   ; qtot 0.077887
  449         hc     15    bbb     H9    449 0.06265900   1.008000   ; qtot 0.140546
  450         hc     15    bbb    H10    450 0.06265900   1.008000   ; qtot 0.203205
  451         c3     15    bbb     C6    451 0.11363000  12.010000   ; qtot 0.316835
  452         hc     15    bbb    H11    452 0.06265900   1.008000   ; qtot 0.379494
  453         hc     15    bbb    H12    453 0.06265900   1.008000   ; qtot 0.442153
  454         c3     15    bbb     C7    454 0.05858200  12.010000   ; qtot 0.500735
  455         h1     15    bbb    H13    455 0.06123400   1.008000   ; qtot 0.561969
  456         h1     15    bbb    H14    456 0.06123400   1.008000   ; qtot 0.623203
  457         c3     15    bbb     C8    457 -0.72423400  12.010000   ; qtot -0.101031
  458         h1     15    bbb    H15    458 0.25637600   1.008000   ; qtot 0.155345
  459         h1     15    bbb    H16    459 0.25637600   1.008000   ; qtot 0.411721
  460         c3     15    bbb     C9    460 -0.72423400  12.010000   ; qtot -0.312513
  461         h1     15    bbb    H17    461 0.25637600   1.008000   ; qtot -0.056137
  462         h1     15    bbb    H18    462 0.25637600   1.008000   ; qtot 0.200239
  463         os     15    bbb     O1    463 -0.20025300  16.000000   ; qtot -0.000014
; residue   16 bbb rtp bbb q -0.0
  464         n3     16    bbb     N1    464 -0.59685800  14.010000   ; qtot -0.596872
  465         c3     16    bbb     C1    465 0.10137000  12.010000   ; qtot -0.495502
  466         h1     16    bbb     H1    466 0.04411300   1.008000   ; qtot -0.451389
  467         h1     16    bbb     H2    467 0.04411300   1.008000   ; qtot -0.407276
  468         c3     16    bbb     C2    468 0.10137000  12.010000   ; qtot -0.305906
  469         h1     16    bbb     H3    469 0.04411300   1.008000   ; qtot -0.261793
  470         h1     16    bbb     H4    470 0.04411300   1.008000   ; qtot -0.217680
  471         c3     16    bbb     C3    471 -0.00195300  12.010000   ; qtot -0.219633
  472         h1     16    bbb     H5    472 0.05064400   1.008000   ; qtot -0.168989
  473         h1     16    bbb     H6    473 0.05064400   1.008000   ; qtot -0.118345
  474         c3     16    bbb     C4    474 -0.01612100  12.010000   ; qtot -0.134466
  475         hc     16    bbb     H7    475 0.04936100   1.008000   ; qtot -0.085105
  476         hc     16    bbb     H8    476 0.04936100   1.008000   ; qtot -0.035744
  477         c3     16    bbb     C5    477 0.11363000  12.010000   ; qtot 0.077886
  478         hc     16    bbb     H9    478 0.06265900   1.008000   ; qtot 0.140545
  479         hc     16    bbb    H10    479 0.06265900   1.008000   ; qtot 0.203204
  480         c3     16    bbb     C6    480 0.11363000  12.010000   ; qtot 0.316834
  481         hc     16    bbb    H11    481 0.06265900   1.008000   ; qtot 0.379493
  482         hc     16    bbb    H12    482 0.06265900   1.008000   ; qtot 0.442152
  483         c3     16    bbb     C7    483 0.05858200  12.010000   ; qtot 0.500734
  484         h1     16    bbb    H13    484 0.06123400   1.008000   ; qtot 0.561968
  485         h1     16    bbb    H14    485 0.06123400   1.008000   ; qtot 0.623202
  486         c3     16    bbb     C8    486 -0.72423400  12.010000   ; qtot -0.101032
  487         h1     16    bbb    H15    487 0.25637600   1.008000   ; qtot 0.155344
  488         h1     16    bbb    H16    488 0.25637600   1.008000   ; qtot 0.411720
  489         c3     16    bbb     C9    489 -0.72423400  12.010000   ; qtot -0.312514
  490         h1     16    bbb    H17    490 0.25637600   1.008000   ; qtot -0.056138
  491         h1     16    bbb    H18    491 0.25637600   1.008000   ; qtot 0.200238
  492         os     16    bbb     O1    492 -0.20025300  16.000000   ; qtot -0.000015
; residue   17 bbb rtp bbb q -0.0
  493         n3     17    bbb     N1    493 -0.59685800  14.010000   ; qtot -0.596873
  494         c3     17    bbb     C1    494 0.10137000  12.010000   ; qtot -0.495503
  495         h1     17    bbb     H1    495 0.04411300   1.008000   ; qtot -0.451390
  496         h1     17    bbb     H2    496 0.04411300   1.008000   ; qtot -0.407277
  497         c3     17    bbb     C2    497 0.10137000  12.010000   ; qtot -0.305907
  498         h1     17    bbb     H3    498 0.04411300   1.008000   ; qtot -0.261794
  499         h1     17    bbb     H4    499 0.04411300   1.008000   ; qtot -0.217681
  500         c3     17    bbb     C3    500 -0.00195300  12.010000   ; qtot -0.219634
  501         h1     17    bbb     H5    501 0.05064400   1.008000   ; qtot -0.168990
  502         h1     17    bbb     H6    502 0.05064400   1.008000   ; qtot -0.118346
  503         c3     17    bbb     C4    503 -0.01612100  12.010000   ; qtot -0.134467
  504         hc     17    bbb     H7    504 0.04936100   1.008000   ; qtot -0.085106
  505         hc     17    bbb     H8    505 0.04936100   1.008000   ; qtot -0.035745
  506         c3     17    bbb     C5    506 0.11363000  12.010000   ; qtot 0.077885
  507         hc     17    bbb     H9    507 0.06265900   1.008000   ; qtot 0.140544
  508         hc     17    bbb    H10    508 0.06265900   1.008000   ; qtot 0.203203
  509         c3     17    bbb     C6    509 0.11363000  12.010000   ; qtot 0.316833
  510         hc     17    bbb    H11    510 0.06265900   1.008000   ; qtot 0.379492
  511         hc     17    bbb    H12    511 0.06265900   1.008000   ; qtot 0.442151
  512         c3     17    bbb     C7    512 0.05858200  12.010000   ; qtot 0.500733
  513         h1     17    bbb    H13    513 0.06123400   1.008000   ; qtot 0.561967
  514         h1     17    bbb    H14    514 0.06123400   1.008000   ; qtot 0.623201
  515         c3     17    bbb     C8    515 -0.72423400  12.010000   ; qtot -0.101033
  516         h1     17    bbb    H15    516 0.25637600   1.008000   ; qtot 0.155343
  517         h1     17    bbb    H16    517 0.25637600   1.008000   ; qtot 0.411719
  518         c3     17    bbb     C9    518 -0.72423400  12.010000   ; qtot -0.312515
  519         h1     17    bbb    H17    519 0.25637600   1.008000   ; qtot -0.056139
  520         h1     17    bbb    H18    520 0.25637600   1.008000   ; qtot 0.200237
  521         os     17    bbb     O1    521 -0.20025300  16.000000   ; qtot -0.000016
; residue   18 bbb rtp bbb q -0.0
  522         n3     18    bbb     N1    522 -0.59685800  14.010000   ; qtot -0.596874
  523         c3     18    bbb     C1    523 0.10137000  12.010000   ; qtot -0.495504
  524         h1     18    bbb     H1    524 0.04411300   1.008000   ; qtot -0.451391
  525         h1     18    bbb     H2    525 0.04411300   1.008000   ; qtot -0.407278
  526         c3     18    bbb     C2    526 0.10137000  12.010000   ; qtot -0.305908
  527         h1     18    bbb     H3    527 0.04411300   1.008000   ; qtot -0.261795
  528         h1     18    bbb     H4    528 0.04411300   1.008000   ; qtot -0.217682
  529         c3     18    bbb     C3    529 -0.00195300  12.010000   ; qtot -0.219635
  530         h1     18    bbb     H5    530 0.05064400   1.008000   ; qtot -0.168991
  531         h1     18    bbb     H6    531 0.05064400   1.008000   ; qtot -0.118347
  532         c3     18    bbb     C4    532 -0.01612100  12.010000   ; qtot -0.134468
  533         hc     18    bbb     H7    533 0.04936100   1.008000   ; qtot -0.085107
  534         hc     18    bbb     H8    534 0.04936100   1.008000   ; qtot -0.035746
  535         c3     18    bbb     C5    535 0.11363000  12.010000   ; qtot 0.077884
  536         hc     18    bbb     H9    536 0.06265900   1.008000   ; qtot 0.140543
  537         hc     18    bbb    H10    537 0.06265900   1.008000   ; qtot 0.203202
  538         c3     18    bbb     C6    538 0.11363000  12.010000   ; qtot 0.316832
  539         hc     18    bbb    H11    539 0.06265900   1.008000   ; qtot 0.379491
  540         hc     18    bbb    H12    540 0.06265900   1.008000   ; qtot 0.442150
  541         c3     18    bbb     C7    541 0.05858200  12.010000   ; qtot 0.500732
  542         h1     18    bbb    H13    542 0.06123400   1.008000   ; qtot 0.561966
  543         h1     18    bbb    H14    543 0.06123400   1.008000   ; qtot 0.623200
  544         c3     18    bbb     C8    544 -0.72423400  12.010000   ; qtot -0.101034
  545         h1     18    bbb    H15    545 0.25637600   1.008000   ; qtot 0.155342
  546         h1     18    bbb    H16    546 0.25637600   1.008000   ; qtot 0.411718
  547         c3     18    bbb     C9    547 -0.72423400  12.010000   ; qtot -0.312516
  548         h1     18    bbb    H17    548 0.25637600   1.008000   ; qtot -0.056140
  549         h1     18    bbb    H18    549 0.25637600   1.008000   ; qtot 0.200236
  550         os     18    bbb     O1    550 -0.20025300  16.000000   ; qtot -0.000017
; residue   19 bbb rtp bbb q -0.0
  551         n3     19    bbb     N1    551 -0.59685800  14.010000   ; qtot -0.596875
  552         c3     19    bbb     C1    552 0.10137000  12.010000   ; qtot -0.495505
  553         h1     19    bbb     H1    553 0.04411300   1.008000   ; qtot -0.451392
  554         h1     19    bbb     H2    554 0.04411300   1.008000   ; qtot -0.407279
  555         c3     19    bbb     C2    555 0.10137000  12.010000   ; qtot -0.305909
  556         h1     19    bbb     H3    556 0.04411300   1.008000   ; qtot -0.261796
  557         h1     19    bbb     H4    557 0.04411300   1.008000   ; qtot -0.217683
  558         c3     19    bbb     C3    558 -0.00195300  12.010000   ; qtot -0.219636
  559         h1     19    bbb     H5    559 0.05064400   1.008000   ; qtot -0.168992
  560         h1     19    bbb     H6    560 0.05064400   1.008000   ; qtot -0.118348
  561         c3     19    bbb     C4    561 -0.01612100  12.010000   ; qtot -0.134469
  562         hc     19    bbb     H7    562 0.04936100   1.008000   ; qtot -0.085108
  563         hc     19    bbb     H8    563 0.04936100   1.008000   ; qtot -0.035747
  564         c3     19    bbb     C5    564 0.11363000  12.010000   ; qtot 0.077883
  565         hc     19    bbb     H9    565 0.06265900   1.008000   ; qtot 0.140542
  566         hc     19    bbb    H10    566 0.06265900   1.008000   ; qtot 0.203201
  567         c3     19    bbb     C6    567 0.11363000  12.010000   ; qtot 0.316831
  568         hc     19    bbb    H11    568 0.06265900   1.008000   ; qtot 0.379490
  569         hc     19    bbb    H12    569 0.06265900   1.008000   ; qtot 0.442149
  570         c3     19    bbb     C7    570 0.05858200  12.010000   ; qtot 0.500731
  571         h1     19    bbb    H13    571 0.06123400   1.008000   ; qtot 0.561965
  572         h1     19    bbb    H14    572 0.06123400   1.008000   ; qtot 0.623199
  573         c3     19    bbb     C8    573 -0.72423400  12.010000   ; qtot -0.101035
  574         h1     19    bbb    H15    574 0.25637600   1.008000   ; qtot 0.155341
  575         h1     19    bbb    H16    575 0.25637600   1.008000   ; qtot 0.411717
  576         c3     19    bbb     C9    576 -0.72423400  12.010000   ; qtot -0.312517
  577         h1     19    bbb    H17    577 0.25637600   1.008000   ; qtot -0.056141
  578         h1     19    bbb    H18    578 0.25637600   1.008000   ; qtot 0.200235
  579         os     19    bbb     O1    579 -0.20025300  16.000000   ; qtot -0.000018
; residue   20 bbb rtp bbb q -0.0
  580         n3     20    bbb     N1    580 -0.59685800  14.010000   ; qtot -0.596876
  581         c3     20    bbb     C1    581 0.10137000  12.010000   ; qtot -0.495506
  582         h1     20    bbb     H1    582 0.04411300   1.008000   ; qtot -0.451393
  583         h1     20    bbb     H2    583 0.04411300   1.008000   ; qtot -0.407280
  584         c3     20    bbb     C2    584 0.10137000  12.010000   ; qtot -0.305910
  585         h1     20    bbb     H3    585 0.04411300   1.008000   ; qtot -0.261797
  586         h1     20    bbb     H4    586 0.04411300   1.008000   ; qtot -0.217684
  587         c3     20    bbb     C3    587 -0.00195300  12.010000   ; qtot -0.219637
  588         h1     20    bbb     H5    588 0.05064400   1.008000   ; qtot -0.168993
  589         h1     20    bbb     H6    589 0.05064400   1.008000   ; qtot -0.118349
  590         c3     20    bbb     C4    590 -0.01612100  12.010000   ; qtot -0.134470
  591         hc     20    bbb     H7    591 0.04936100   1.008000   ; qtot -0.085109
  592         hc     20    bbb     H8    592 0.04936100   1.008000   ; qtot -0.035748
  593         c3     20    bbb     C5    593 0.11363000  12.010000   ; qtot 0.077882
  594         hc     20    bbb     H9    594 0.06265900   1.008000   ; qtot 0.140541
  595         hc     20    bbb    H10    595 0.06265900   1.008000   ; qtot 0.203200
  596         c3     20    bbb     C6    596 0.11363000  12.010000   ; qtot 0.316830
  597         hc     20    bbb    H11    597 0.06265900   1.008000   ; qtot 0.379489
  598         hc     20    bbb    H12    598 0.06265900   1.008000   ; qtot 0.442148
  599         c3     20    bbb     C7    599 0.05858200  12.010000   ; qtot 0.500730
  600         h1     20    bbb    H13    600 0.06123400   1.008000   ; qtot 0.561964
  601         h1     20    bbb    H14    601 0.06123400   1.008000   ; qtot 0.623198
  602         c3     20    bbb     C8    602 -0.72423400  12.010000   ; qtot -0.101036
  603         h1     20    bbb    H15    603 0.25637600   1.008000   ; qtot 0.155340
  604         h1     20    bbb    H16    604 0.25637600   1.008000   ; qtot 0.411716
  605         c3     20    bbb     C9    605 -0.72423400  12.010000   ; qtot -0.312518
  606         h1     20    bbb    H17    606 0.25637600   1.008000   ; qtot -0.056142
  607         h1     20    bbb    H18    607 0.25637600   1.008000   ; qtot 0.200234
  608         os     20    bbb     O1    608 -0.20025300  16.000000   ; qtot -0.000019
; residue   21 bbb rtp bbb q -0.0
  609         n3     21    bbb     N1    609 -0.59685800  14.010000   ; qtot -0.596877
  610         c3     21    bbb     C1    610 0.10137000  12.010000   ; qtot -0.495507
  611         h1     21    bbb     H1    611 0.04411300   1.008000   ; qtot -0.451394
  612         h1     21    bbb     H2    612 0.04411300   1.008000   ; qtot -0.407281
  613         c3     21    bbb     C2    613 0.10137000  12.010000   ; qtot -0.305911
  614         h1     21    bbb     H3    614 0.04411300   1.008000   ; qtot -0.261798
  615         h1     21    bbb     H4    615 0.04411300   1.008000   ; qtot -0.217685
  616         c3     21    bbb     C3    616 -0.00195300  12.010000   ; qtot -0.219638
  617         h1     21    bbb     H5    617 0.05064400   1.008000   ; qtot -0.168994
  618         h1     21    bbb     H6    618 0.05064400   1.008000   ; qtot -0.118350
  619         c3     21    bbb     C4    619 -0.01612100  12.010000   ; qtot -0.134471
  620         hc     21    bbb     H7    620 0.04936100   1.008000   ; qtot -0.085110
  621         hc     21    bbb     H8    621 0.04936100   1.008000   ; qtot -0.035749
  622         c3     21    bbb     C5    622 0.11363000  12.010000   ; qtot 0.077881
  623         hc     21    bbb     H9    623 0.06265900   1.008000   ; qtot 0.140540
  624         hc     21    bbb    H10    624 0.06265900   1.008000   ; qtot 0.203199
  625         c3     21    bbb     C6    625 0.11363000  12.010000   ; qtot 0.316829
  626         hc     21    bbb    H11    626 0.06265900   1.008000   ; qtot 0.379488
  627         hc     21    bbb    H12    627 0.06265900   1.008000   ; qtot 0.442147
  628         c3     21    bbb     C7    628 0.05858200  12.010000   ; qtot 0.500729
  629         h1     21    bbb    H13    629 0.06123400   1.008000   ; qtot 0.561963
  630         h1     21    bbb    H14    630 0.06123400   1.008000   ; qtot 0.623197
  631         c3     21    bbb     C8    631 -0.72423400  12.010000   ; qtot -0.101037
  632         h1     21    bbb    H15    632 0.25637600   1.008000   ; qtot 0.155339
  633         h1     21    bbb    H16    633 0.25637600   1.008000   ; qtot 0.411715
  634         c3     21    bbb     C9    634 -0.72423400  12.010000   ; qtot -0.312519
  635         h1     21    bbb    H17    635 0.25637600   1.008000   ; qtot -0.056143
  636         h1     21    bbb    H18    636 0.25637600   1.008000   ; qtot 0.200233
  637         os     21    bbb     O1    637 -0.20025300  16.000000   ; qtot -0.000020
; residue   22 bbb rtp bbb q -0.0
  638         n3     22    bbb     N1    638 -0.59685800  14.010000   ; qtot -0.596878
  639         c3     22    bbb     C1    639 0.10137000  12.010000   ; qtot -0.495508
  640         h1     22    bbb     H1    640 0.04411300   1.008000   ; qtot -0.451395
  641         h1     22    bbb     H2    641 0.04411300   1.008000   ; qtot -0.407282
  642         c3     22    bbb     C2    642 0.10137000  12.010000   ; qtot -0.305912
  643         h1     22    bbb     H3    643 0.04411300   1.008000   ; qtot -0.261799
  644         h1     22    bbb     H4    644 0.04411300   1.008000   ; qtot -0.217686
  645         c3     22    bbb     C3    645 -0.00195300  12.010000   ; qtot -0.219639
  646         h1     22    bbb     H5    646 0.05064400   1.008000   ; qtot -0.168995
  647         h1     22    bbb     H6    647 0.05064400   1.008000   ; qtot -0.118351
  648         c3     22    bbb     C4    648 -0.01612100  12.010000   ; qtot -0.134472
  649         hc     22    bbb     H7    649 0.04936100   1.008000   ; qtot -0.085111
  650         hc     22    bbb     H8    650 0.04936100   1.008000   ; qtot -0.035750
  651         c3     22    bbb     C5    651 0.11363000  12.010000   ; qtot 0.077880
  652         hc     22    bbb     H9    652 0.06265900   1.008000   ; qtot 0.140539
  653         hc     22    bbb    H10    653 0.06265900   1.008000   ; qtot 0.203198
  654         c3     22    bbb     C6    654 0.11363000  12.010000   ; qtot 0.316828
  655         hc     22    bbb    H11    655 0.06265900   1.008000   ; qtot 0.379487
  656         hc     22    bbb    H12    656 0.06265900   1.008000   ; qtot 0.442146
  657         c3     22    bbb     C7    657 0.05858200  12.010000   ; qtot 0.500728
  658         h1     22    bbb    H13    658 0.06123400   1.008000   ; qtot 0.561962
  659         h1     22    bbb    H14    659 0.06123400   1.008000   ; qtot 0.623196
  660         c3     22    bbb     C8    660 -0.72423400  12.010000   ; qtot -0.101038
  661         h1     22    bbb    H15    661 0.25637600   1.008000   ; qtot 0.155338
  662         h1     22    bbb    H16    662 0.25637600   1.008000   ; qtot 0.411714
  663         c3     22    bbb     C9    663 -0.72423400  12.010000   ; qtot -0.312520
  664         h1     22    bbb    H17    664 0.25637600   1.008000   ; qtot -0.056144
  665         h1     22    bbb    H18    665 0.25637600   1.008000   ; qtot 0.200232
  666         os     22    bbb     O1    666 -0.20025300  16.000000   ; qtot -0.000021
; residue   23 bbb rtp bbb q -0.0
  667         n3     23    bbb     N1    667 -0.59685800  14.010000   ; qtot -0.596879
  668         c3     23    bbb     C1    668 0.10137000  12.010000   ; qtot -0.495509
  669         h1     23    bbb     H1    669 0.04411300   1.008000   ; qtot -0.451396
  670         h1     23    bbb     H2    670 0.04411300   1.008000   ; qtot -0.407283
  671         c3     23    bbb     C2    671 0.10137000  12.010000   ; qtot -0.305913
  672         h1     23    bbb     H3    672 0.04411300   1.008000   ; qtot -0.261800
  673         h1     23    bbb     H4    673 0.04411300   1.008000   ; qtot -0.217687
  674         c3     23    bbb     C3    674 -0.00195300  12.010000   ; qtot -0.219640
  675         h1     23    bbb     H5    675 0.05064400   1.008000   ; qtot -0.168996
  676         h1     23    bbb     H6    676 0.05064400   1.008000   ; qtot -0.118352
  677         c3     23    bbb     C4    677 -0.01612100  12.010000   ; qtot -0.134473
  678         hc     23    bbb     H7    678 0.04936100   1.008000   ; qtot -0.085112
  679         hc     23    bbb     H8    679 0.04936100   1.008000   ; qtot -0.035751
  680         c3     23    bbb     C5    680 0.11363000  12.010000   ; qtot 0.077879
  681         hc     23    bbb     H9    681 0.06265900   1.008000   ; qtot 0.140538
  682         hc     23    bbb    H10    682 0.06265900   1.008000   ; qtot 0.203197
  683         c3     23    bbb     C6    683 0.11363000  12.010000   ; qtot 0.316827
  684         hc     23    bbb    H11    684 0.06265900   1.008000   ; qtot 0.379486
  685         hc     23    bbb    H12    685 0.06265900   1.008000   ; qtot 0.442145
  686         c3     23    bbb     C7    686 0.05858200  12.010000   ; qtot 0.500727
  687         h1     23    bbb    H13    687 0.06123400   1.008000   ; qtot 0.561961
  688         h1     23    bbb    H14    688 0.06123400   1.008000   ; qtot 0.623195
  689         c3     23    bbb     C8    689 -0.72423400  12.010000   ; qtot -0.101039
  690         h1     23    bbb    H15    690 0.25637600   1.008000   ; qtot 0.155337
  691         h1     23    bbb    H16    691 0.25637600   1.008000   ; qtot 0.411713
  692         c3     23    bbb     C9    692 -0.72423400  12.010000   ; qtot -0.312521
  693         h1     23    bbb    H17    693 0.25637600   1.008000   ; qtot -0.056145
  694         h1     23    bbb    H18    694 0.25637600   1.008000   ; qtot 0.200231
  695         os     23    bbb     O1    695 -0.20025300  16.000000   ; qtot -0.000022
; residue   24 bbb rtp bbb q -0.0
  696         n3     24    bbb     N1    696 -0.59685800  14.010000   ; qtot -0.596880
  697         c3     24    bbb     C1    697 0.10137000  12.010000   ; qtot -0.495510
  698         h1     24    bbb     H1    698 0.04411300   1.008000   ; qtot -0.451397
  699         h1     24    bbb     H2    699 0.04411300   1.008000   ; qtot -0.407284
  700         c3     24    bbb     C2    700 0.10137000  12.010000   ; qtot -0.305914
  701         h1     24    bbb     H3    701 0.04411300   1.008000   ; qtot -0.261801
  702         h1     24    bbb     H4    702 0.04411300   1.008000   ; qtot -0.217688
  703         c3     24    bbb     C3    703 -0.00195300  12.010000   ; qtot -0.219641
  704         h1     24    bbb     H5    704 0.05064400   1.008000   ; qtot -0.168997
  705         h1     24    bbb     H6    705 0.05064400   1.008000   ; qtot -0.118353
  706         c3     24    bbb     C4    706 -0.01612100  12.010000   ; qtot -0.134474
  707         hc     24    bbb     H7    707 0.04936100   1.008000   ; qtot -0.085113
  708         hc     24    bbb     H8    708 0.04936100   1.008000   ; qtot -0.035752
  709         c3     24    bbb     C5    709 0.11363000  12.010000   ; qtot 0.077878
  710         hc     24    bbb     H9    710 0.06265900   1.008000   ; qtot 0.140537
  711         hc     24    bbb    H10    711 0.06265900   1.008000   ; qtot 0.203196
  712         c3     24    bbb     C6    712 0.11363000  12.010000   ; qtot 0.316826
  713         hc     24    bbb    H11    713 0.06265900   1.008000   ; qtot 0.379485
  714         hc     24    bbb    H12    714 0.06265900   1.008000   ; qtot 0.442144
  715         c3     24    bbb     C7    715 0.05858200  12.010000   ; qtot 0.500726
  716         h1     24    bbb    H13    716 0.06123400   1.008000   ; qtot 0.561960
  717         h1     24    bbb    H14    717 0.06123400   1.008000   ; qtot 0.623194
  718         c3     24    bbb     C8    718 -0.72423400  12.010000   ; qtot -0.101040
  719         h1     24    bbb    H15    719 0.25637600   1.008000   ; qtot 0.155336
  720         h1     24    bbb    H16    720 0.25637600   1.008000   ; qtot 0.411712
  721         c3     24    bbb     C9    721 -0.72423400  12.010000   ; qtot -0.312522
  722         h1     24    bbb    H17    722 0.25637600   1.008000   ; qtot -0.056146
  723         h1     24    bbb    H18    723 0.25637600   1.008000   ; qtot 0.200230
  724         os     24    bbb     O1    724 -0.20025300  16.000000   ; qtot -0.000023
; residue   25 bbb rtp bbb q -0.0
  725         n3     25    bbb     N1    725 -0.59685800  14.010000   ; qtot -0.596881
  726         c3     25    bbb     C1    726 0.10137000  12.010000   ; qtot -0.495511
  727         h1     25    bbb     H1    727 0.04411300   1.008000   ; qtot -0.451398
  728         h1     25    bbb     H2    728 0.04411300   1.008000   ; qtot -0.407285
  729         c3     25    bbb     C2    729 0.10137000  12.010000   ; qtot -0.305915
  730         h1     25    bbb     H3    730 0.04411300   1.008000   ; qtot -0.261802
  731         h1     25    bbb     H4    731 0.04411300   1.008000   ; qtot -0.217689
  732         c3     25    bbb     C3    732 -0.00195300  12.010000   ; qtot -0.219642
  733         h1     25    bbb     H5    733 0.05064400   1.008000   ; qtot -0.168998
  734         h1     25    bbb     H6    734 0.05064400   1.008000   ; qtot -0.118354
  735         c3     25    bbb     C4    735 -0.01612100  12.010000   ; qtot -0.134475
  736         hc     25    bbb     H7    736 0.04936100   1.008000   ; qtot -0.085114
  737         hc     25    bbb     H8    737 0.04936100   1.008000   ; qtot -0.035753
  738         c3     25    bbb     C5    738 0.11363000  12.010000   ; qtot 0.077877
  739         hc     25    bbb     H9    739 0.06265900   1.008000   ; qtot 0.140536
  740         hc     25    bbb    H10    740 0.06265900   1.008000   ; qtot 0.203195
  741         c3     25    bbb     C6    741 0.11363000  12.010000   ; qtot 0.316825
  742         hc     25    bbb    H11    742 0.06265900   1.008000   ; qtot 0.379484
  743         hc     25    bbb    H12    743 0.06265900   1.008000   ; qtot 0.442143
  744         c3     25    bbb     C7    744 0.05858200  12.010000   ; qtot 0.500725
  745         h1     25    bbb    H13    745 0.06123400   1.008000   ; qtot 0.561959
  746         h1     25    bbb    H14    746 0.06123400   1.008000   ; qtot 0.623193
  747         c3     25    bbb     C8    747 -0.72423400  12.010000   ; qtot -0.101041
  748         h1     25    bbb    H15    748 0.25637600   1.008000   ; qtot 0.155335
  749         h1     25    bbb    H16    749 0.25637600   1.008000   ; qtot 0.411711
  750         c3     25    bbb     C9    750 -0.72423400  12.010000   ; qtot -0.312523
  751         h1     25    bbb    H17    751 0.25637600   1.008000   ; qtot -0.056147
  752         h1     25    bbb    H18    752 0.25637600   1.008000   ; qtot 0.200229
  753         os     25    bbb     O1    753 -0.20025300  16.000000   ; qtot -0.000024
; residue   26 bbb rtp bbb q -0.0
  754         n3     26    bbb     N1    754 -0.59685800  14.010000   ; qtot -0.596882
  755         c3     26    bbb     C1    755 0.10137000  12.010000   ; qtot -0.495512
  756         h1     26    bbb     H1    756 0.04411300   1.008000   ; qtot -0.451399
  757         h1     26    bbb     H2    757 0.04411300   1.008000   ; qtot -0.407286
  758         c3     26    bbb     C2    758 0.10137000  12.010000   ; qtot -0.305916
  759         h1     26    bbb     H3    759 0.04411300   1.008000   ; qtot -0.261803
  760         h1     26    bbb     H4    760 0.04411300   1.008000   ; qtot -0.217690
  761         c3     26    bbb     C3    761 -0.00195300  12.010000   ; qtot -0.219643
  762         h1     26    bbb     H5    762 0.05064400   1.008000   ; qtot -0.168999
  763         h1     26    bbb     H6    763 0.05064400   1.008000   ; qtot -0.118355
  764         c3     26    bbb     C4    764 -0.01612100  12.010000   ; qtot -0.134476
  765         hc     26    bbb     H7    765 0.04936100   1.008000   ; qtot -0.085115
  766         hc     26    bbb     H8    766 0.04936100   1.008000   ; qtot -0.035754
  767         c3     26    bbb     C5    767 0.11363000  12.010000   ; qtot 0.077876
  768         hc     26    bbb     H9    768 0.06265900   1.008000   ; qtot 0.140535
  769         hc     26    bbb    H10    769 0.06265900   1.008000   ; qtot 0.203194
  770         c3     26    bbb     C6    770 0.11363000  12.010000   ; qtot 0.316824
  771         hc     26    bbb    H11    771 0.06265900   1.008000   ; qtot 0.379483
  772         hc     26    bbb    H12    772 0.06265900   1.008000   ; qtot 0.442142
  773         c3     26    bbb     C7    773 0.05858200  12.010000   ; qtot 0.500724
  774         h1     26    bbb    H13    774 0.06123400   1.008000   ; qtot 0.561958
  775         h1     26    bbb    H14    775 0.06123400   1.008000   ; qtot 0.623192
  776         c3     26    bbb     C8    776 -0.72423400  12.010000   ; qtot -0.101042
  777         h1     26    bbb    H15    777 0.25637600   1.008000   ; qtot 0.155334
  778         h1     26    bbb    H16    778 0.25637600   1.008000   ; qtot 0.411710
  779         c3     26    bbb     C9    779 -0.72423400  12.010000   ; qtot -0.312524
  780         h1     26    bbb    H17    780 0.25637600   1.008000   ; qtot -0.056148
  781         h1     26    bbb    H18    781 0.25637600   1.008000   ; qtot 0.200228
  782         os     26    bbb     O1    782 -0.20025300  16.000000   ; qtot -0.000025
; residue   27 bbb rtp bbb q -0.0
  783         n3     27    bbb     N1    783 -0.59685800  14.010000   ; qtot -0.596883
  784         c3     27    bbb     C1    784 0.10137000  12.010000   ; qtot -0.495513
  785         h1     27    bbb     H1    785 0.04411300   1.008000   ; qtot -0.451400
  786         h1     27    bbb     H2    786 0.04411300   1.008000   ; qtot -0.407287
  787         c3     27    bbb     C2    787 0.10137000  12.010000   ; qtot -0.305917
  788         h1     27    bbb     H3    788 0.04411300   1.008000   ; qtot -0.261804
  789         h1     27    bbb     H4    789 0.04411300   1.008000   ; qtot -0.217691
  790         c3     27    bbb     C3    790 -0.00195300  12.010000   ; qtot -0.219644
  791         h1     27    bbb     H5    791 0.05064400   1.008000   ; qtot -0.169000
  792         h1     27    bbb     H6    792 0.05064400   1.008000   ; qtot -0.118356
  793         c3     27    bbb     C4    793 -0.01612100  12.010000   ; qtot -0.134477
  794         hc     27    bbb     H7    794 0.04936100   1.008000   ; qtot -0.085116
  795         hc     27    bbb     H8    795 0.04936100   1.008000   ; qtot -0.035755
  796         c3     27    bbb     C5    796 0.11363000  12.010000   ; qtot 0.077875
  797         hc     27    bbb     H9    797 0.06265900   1.008000   ; qtot 0.140534
  798         hc     27    bbb    H10    798 0.06265900   1.008000   ; qtot 0.203193
  799         c3     27    bbb     C6    799 0.11363000  12.010000   ; qtot 0.316823
  800         hc     27    bbb    H11    800 0.06265900   1.008000   ; qtot 0.379482
  801         hc     27    bbb    H12    801 0.06265900   1.008000   ; qtot 0.442141
  802         c3     27    bbb     C7    802 0.05858200  12.010000   ; qtot 0.500723
  803         h1     27    bbb    H13    803 0.06123400   1.008000   ; qtot 0.561957
  804         h1     27    bbb    H14    804 0.06123400   1.008000   ; qtot 0.623191
  805         c3     27    bbb     C8    805 -0.72423400  12.010000   ; qtot -0.101043
  806         h1     27    bbb    H15    806 0.25637600   1.008000   ; qtot 0.155333
  807         h1     27    bbb    H16    807 0.25637600   1.008000   ; qtot 0.411709
  808         c3     27    bbb     C9    808 -0.72423400  12.010000   ; qtot -0.312525
  809         h1     27    bbb    H17    809 0.25637600   1.008000   ; qtot -0.056149
  810         h1     27    bbb    H18    810 0.25637600   1.008000   ; qtot 0.200227
  811         os     27    bbb     O1    811 -0.20025300  16.000000   ; qtot -0.000026
; residue   28 bbb rtp bbb q -0.0
  812         n3     28    bbb     N1    812 -0.59685800  14.010000   ; qtot -0.596884
  813         c3     28    bbb     C1    813 0.10137000  12.010000   ; qtot -0.495514
  814         h1     28    bbb     H1    814 0.04411300   1.008000   ; qtot -0.451401
  815         h1     28    bbb     H2    815 0.04411300   1.008000   ; qtot -0.407288
  816         c3     28    bbb     C2    816 0.10137000  12.010000   ; qtot -0.305918
  817         h1     28    bbb     H3    817 0.04411300   1.008000   ; qtot -0.261805
  818         h1     28    bbb     H4    818 0.04411300   1.008000   ; qtot -0.217692
  819         c3     28    bbb     C3    819 -0.00195300  12.010000   ; qtot -0.219645
  820         h1     28    bbb     H5    820 0.05064400   1.008000   ; qtot -0.169001
  821         h1     28    bbb     H6    821 0.05064400   1.008000   ; qtot -0.118357
  822         c3     28    bbb     C4    822 -0.01612100  12.010000   ; qtot -0.134478
  823         hc     28    bbb     H7    823 0.04936100   1.008000   ; qtot -0.085117
  824         hc     28    bbb     H8    824 0.04936100   1.008000   ; qtot -0.035756
  825         c3     28    bbb     C5    825 0.11363000  12.010000   ; qtot 0.077874
  826         hc     28    bbb     H9    826 0.06265900   1.008000   ; qtot 0.140533
  827         hc     28    bbb    H10    827 0.06265900   1.008000   ; qtot 0.203192
  828         c3     28    bbb     C6    828 0.11363000  12.010000   ; qtot 0.316822
  829         hc     28    bbb    H11    829 0.06265900   1.008000   ; qtot 0.379481
  830         hc     28    bbb    H12    830 0.06265900   1.008000   ; qtot 0.442140
  831         c3     28    bbb     C7    831 0.05858200  12.010000   ; qtot 0.500722
  832         h1     28    bbb    H13    832 0.06123400   1.008000   ; qtot 0.561956
  833         h1     28    bbb    H14    833 0.06123400   1.008000   ; qtot 0.623190
  834         c3     28    bbb     C8    834 -0.72423400  12.010000   ; qtot -0.101044
  835         h1     28    bbb    H15    835 0.25637600   1.008000   ; qtot 0.155332
  836         h1     28    bbb    H16    836 0.25637600   1.008000   ; qtot 0.411708
  837         c3     28    bbb     C9    837 -0.72423400  12.010000   ; qtot -0.312526
  838         h1     28    bbb    H17    838 0.25637600   1.008000   ; qtot -0.056150
  839         h1     28    bbb    H18    839 0.25637600   1.008000   ; qtot 0.200226
  840         os     28    bbb     O1    840 -0.20025300  16.000000   ; qtot -0.000027
; residue   29 bbb rtp bbb q -0.0
  841         n3     29    bbb     N1    841 -0.59685800  14.010000   ; qtot -0.596885
  842         c3     29    bbb     C1    842 0.10137000  12.010000   ; qtot -0.495515
  843         h1     29    bbb     H1    843 0.04411300   1.008000   ; qtot -0.451402
  844         h1     29    bbb     H2    844 0.04411300   1.008000   ; qtot -0.407289
  845         c3     29    bbb     C2    845 0.10137000  12.010000   ; qtot -0.305919
  846         h1     29    bbb     H3    846 0.04411300   1.008000   ; qtot -0.261806
  847         h1     29    bbb     H4    847 0.04411300   1.008000   ; qtot -0.217693
  848         c3     29    bbb     C3    848 -0.00195300  12.010000   ; qtot -0.219646
  849         h1     29    bbb     H5    849 0.05064400   1.008000   ; qtot -0.169002
  850         h1     29    bbb     H6    850 0.05064400   1.008000   ; qtot -0.118358
  851         c3     29    bbb     C4    851 -0.01612100  12.010000   ; qtot -0.134479
  852         hc     29    bbb     H7    852 0.04936100   1.008000   ; qtot -0.085118
  853         hc     29    bbb     H8    853 0.04936100   1.008000   ; qtot -0.035757
  854         c3     29    bbb     C5    854 0.11363000  12.010000   ; qtot 0.077873
  855         hc     29    bbb     H9    855 0.06265900   1.008000   ; qtot 0.140532
  856         hc     29    bbb    H10    856 0.06265900   1.008000   ; qtot 0.203191
  857         c3     29    bbb     C6    857 0.11363000  12.010000   ; qtot 0.316821
  858         hc     29    bbb    H11    858 0.06265900   1.008000   ; qtot 0.379480
  859         hc     29    bbb    H12    859 0.06265900   1.008000   ; qtot 0.442139
  860         c3     29    bbb     C7    860 0.05858200  12.010000   ; qtot 0.500721
  861         h1     29    bbb    H13    861 0.06123400   1.008000   ; qtot 0.561955
  862         h1     29    bbb    H14    862 0.06123400   1.008000   ; qtot 0.623189
  863         c3     29    bbb     C8    863 -0.72423400  12.010000   ; qtot -0.101045
  864         h1     29    bbb    H15    864 0.25637600   1.008000   ; qtot 0.155331
  865         h1     29    bbb    H16    865 0.25637600   1.008000   ; qtot 0.411707
  866         c3     29    bbb     C9    866 -0.72423400  12.010000   ; qtot -0.312527
  867         h1     29    bbb    H17    867 0.25637600   1.008000   ; qtot -0.056151
  868         h1     29    bbb    H18    868 0.25637600   1.008000   ; qtot 0.200225
  869         os     29    bbb     O1    869 -0.20025300  16.000000   ; qtot -0.000028
; residue   30 bbb rtp bbb q -0.0
  870         n3     30    bbb     N1    870 -0.59685800  14.010000   ; qtot -0.596886
  871         c3     30    bbb     C1    871 0.10137000  12.010000   ; qtot -0.495516
  872         h1     30    bbb     H1    872 0.04411300   1.008000   ; qtot -0.451403
  873         h1     30    bbb     H2    873 0.04411300   1.008000   ; qtot -0.407290
  874         c3     30    bbb     C2    874 0.10137000  12.010000   ; qtot -0.305920
  875         h1     30    bbb     H3    875 0.04411300   1.008000   ; qtot -0.261807
  876         h1     30    bbb     H4    876 0.04411300   1.008000   ; qtot -0.217694
  877         c3     30    bbb     C3    877 -0.00195300  12.010000   ; qtot -0.219647
  878         h1     30    bbb     H5    878 0.05064400   1.008000   ; qtot -0.169003
  879         h1     30    bbb     H6    879 0.05064400   1.008000   ; qtot -0.118359
  880         c3     30    bbb     C4    880 -0.01612100  12.010000   ; qtot -0.134480
  881         hc     30    bbb     H7    881 0.04936100   1.008000   ; qtot -0.085119
  882         hc     30    bbb     H8    882 0.04936100   1.008000   ; qtot -0.035758
  883         c3     30    bbb     C5    883 0.11363000  12.010000   ; qtot 0.077872
  884         hc     30    bbb     H9    884 0.06265900   1.008000   ; qtot 0.140531
  885         hc     30    bbb    H10    885 0.06265900   1.008000   ; qtot 0.203190
  886         c3     30    bbb     C6    886 0.11363000  12.010000   ; qtot 0.316820
  887         hc     30    bbb    H11    887 0.06265900   1.008000   ; qtot 0.379479
  888         hc     30    bbb    H12    888 0.06265900   1.008000   ; qtot 0.442138
  889         c3     30    bbb     C7    889 0.05858200  12.010000   ; qtot 0.500720
  890         h1     30    bbb    H13    890 0.06123400   1.008000   ; qtot 0.561954
  891         h1     30    bbb    H14    891 0.06123400   1.008000   ; qtot 0.623188
  892         c3     30    bbb     C8    892 -0.72423400  12.010000   ; qtot -0.101046
  893         h1     30    bbb    H15    893 0.25637600   1.008000   ; qtot 0.155330
  894         h1     30    bbb    H16    894 0.25637600   1.008000   ; qtot 0.411706
  895         c3     30    bbb     C9    895 -0.72423400  12.010000   ; qtot -0.312528
  896         h1     30    bbb    H17    896 0.25637600   1.008000   ; qtot -0.056152
  897         h1     30    bbb    H18    897 0.25637600   1.008000   ; qtot 0.200224
  898         os     30    bbb     O1    898 -0.20025300  16.000000   ; qtot -0.000029
; residue   31 bbb rtp bbb q -0.0
  899         n3     31    bbb     N1    899 -0.59685800  14.010000   ; qtot -0.596887
  900         c3     31    bbb     C1    900 0.10137000  12.010000   ; qtot -0.495517
  901         h1     31    bbb     H1    901 0.04411300   1.008000   ; qtot -0.451404
  902         h1     31    bbb     H2    902 0.04411300   1.008000   ; qtot -0.407291
  903         c3     31    bbb     C2    903 0.10137000  12.010000   ; qtot -0.305921
  904         h1     31    bbb     H3    904 0.04411300   1.008000   ; qtot -0.261808
  905         h1     31    bbb     H4    905 0.04411300   1.008000   ; qtot -0.217695
  906         c3     31    bbb     C3    906 -0.00195300  12.010000   ; qtot -0.219648
  907         h1     31    bbb     H5    907 0.05064400   1.008000   ; qtot -0.169004
  908         h1     31    bbb     H6    908 0.05064400   1.008000   ; qtot -0.118360
  909         c3     31    bbb     C4    909 -0.01612100  12.010000   ; qtot -0.134481
  910         hc     31    bbb     H7    910 0.04936100   1.008000   ; qtot -0.085120
  911         hc     31    bbb     H8    911 0.04936100   1.008000   ; qtot -0.035759
  912         c3     31    bbb     C5    912 0.11363000  12.010000   ; qtot 0.077871
  913         hc     31    bbb     H9    913 0.06265900   1.008000   ; qtot 0.140530
  914         hc     31    bbb    H10    914 0.06265900   1.008000   ; qtot 0.203189
  915         c3     31    bbb     C6    915 0.11363000  12.010000   ; qtot 0.316819
  916         hc     31    bbb    H11    916 0.06265900   1.008000   ; qtot 0.379478
  917         hc     31    bbb    H12    917 0.06265900   1.008000   ; qtot 0.442137
  918         c3     31    bbb     C7    918 0.05858200  12.010000   ; qtot 0.500719
  919         h1     31    bbb    H13    919 0.06123400   1.008000   ; qtot 0.561953
  920         h1     31    bbb    H14    920 0.06123400   1.008000   ; qtot 0.623187
  921         c3     31    bbb     C8    921 -0.72423400  12.010000   ; qtot -0.101047
  922         h1     31    bbb    H15    922 0.25637600   1.008000   ; qtot 0.155329
  923         h1     31    bbb    H16    923 0.25637600   1.008000   ; qtot 0.411705
  924         c3     31    bbb     C9    924 -0.72423400  12.010000   ; qtot -0.312529
  925         h1     31    bbb    H17    925 0.25637600   1.008000   ; qtot -0.056153
  926         h1     31    bbb    H18    926 0.25637600   1.008000   ; qtot 0.200223
  927         os     31    bbb     O1    927 -0.20025300  16.000000   ; qtot -0.000030
; residue   32 bbb rtp bbb q -0.0
  928         n3     32    bbb     N1    928 -0.59685800  14.010000   ; qtot -0.596888
  929         c3     32    bbb     C1    929 0.10137000  12.010000   ; qtot -0.495518
  930         h1     32    bbb     H1    930 0.04411300   1.008000   ; qtot -0.451405
  931         h1     32    bbb     H2    931 0.04411300   1.008000   ; qtot -0.407292
  932         c3     32    bbb     C2    932 0.10137000  12.010000   ; qtot -0.305922
  933         h1     32    bbb     H3    933 0.04411300   1.008000   ; qtot -0.261809
  934         h1     32    bbb     H4    934 0.04411300   1.008000   ; qtot -0.217696
  935         c3     32    bbb     C3    935 -0.00195300  12.010000   ; qtot -0.219649
  936         h1     32    bbb     H5    936 0.05064400   1.008000   ; qtot -0.169005
  937         h1     32    bbb     H6    937 0.05064400   1.008000   ; qtot -0.118361
  938         c3     32    bbb     C4    938 -0.01612100  12.010000   ; qtot -0.134482
  939         hc     32    bbb     H7    939 0.04936100   1.008000   ; qtot -0.085121
  940         hc     32    bbb     H8    940 0.04936100   1.008000   ; qtot -0.035760
  941         c3     32    bbb     C5    941 0.11363000  12.010000   ; qtot 0.077870
  942         hc     32    bbb     H9    942 0.06265900   1.008000   ; qtot 0.140529
  943         hc     32    bbb    H10    943 0.06265900   1.008000   ; qtot 0.203188
  944         c3     32    bbb     C6    944 0.11363000  12.010000   ; qtot 0.316818
  945         hc     32    bbb    H11    945 0.06265900   1.008000   ; qtot 0.379477
  946         hc     32    bbb    H12    946 0.06265900   1.008000   ; qtot 0.442136
  947         c3     32    bbb     C7    947 0.05858200  12.010000   ; qtot 0.500718
  948         h1     32    bbb    H13    948 0.06123400   1.008000   ; qtot 0.561952
  949         h1     32    bbb    H14    949 0.06123400   1.008000   ; qtot 0.623186
  950         c3     32    bbb     C8    950 -0.72423400  12.010000   ; qtot -0.101048
  951         h1     32    bbb    H15    951 0.25637600   1.008000   ; qtot 0.155328
  952         h1     32    bbb    H16    952 0.25637600   1.008000   ; qtot 0.411704
  953         c3     32    bbb     C9    953 -0.72423400  12.010000   ; qtot -0.312530
  954         h1     32    bbb    H17    954 0.25637600   1.008000   ; qtot -0.056154
  955         h1     32    bbb    H18    955 0.25637600   1.008000   ; qtot 0.200222
  956         os     32    bbb     O1    956 -0.20025300  16.000000   ; qtot -0.000031
; residue   33 bbb rtp bbb q -0.0
  957         n3     33    bbb     N1    957 -0.59685800  14.010000   ; qtot -0.596889
  958         c3     33    bbb     C1    958 0.10137000  12.010000   ; qtot -0.495519
  959         h1     33    bbb     H1    959 0.04411300   1.008000   ; qtot -0.451406
  960         h1     33    bbb     H2    960 0.04411300   1.008000   ; qtot -0.407293
  961         c3     33    bbb     C2    961 0.10137000  12.010000   ; qtot -0.305923
  962         h1     33    bbb     H3    962 0.04411300   1.008000   ; qtot -0.261810
  963         h1     33    bbb     H4    963 0.04411300   1.008000   ; qtot -0.217697
  964         c3     33    bbb     C3    964 -0.00195300  12.010000   ; qtot -0.219650
  965         h1     33    bbb     H5    965 0.05064400   1.008000   ; qtot -0.169006
  966         h1     33    bbb     H6    966 0.05064400   1.008000   ; qtot -0.118362
  967         c3     33    bbb     C4    967 -0.01612100  12.010000   ; qtot -0.134483
  968         hc     33    bbb     H7    968 0.04936100   1.008000   ; qtot -0.085122
  969         hc     33    bbb     H8    969 0.04936100   1.008000   ; qtot -0.035761
  970         c3     33    bbb     C5    970 0.11363000  12.010000   ; qtot 0.077869
  971         hc     33    bbb     H9    971 0.06265900   1.008000   ; qtot 0.140528
  972         hc     33    bbb    H10    972 0.06265900   1.008000   ; qtot 0.203187
  973         c3     33    bbb     C6    973 0.11363000  12.010000   ; qtot 0.316817
  974         hc     33    bbb    H11    974 0.06265900   1.008000   ; qtot 0.379476
  975         hc     33    bbb    H12    975 0.06265900   1.008000   ; qtot 0.442135
  976         c3     33    bbb     C7    976 0.05858200  12.010000   ; qtot 0.500717
  977         h1     33    bbb    H13    977 0.06123400   1.008000   ; qtot 0.561951
  978         h1     33    bbb    H14    978 0.06123400   1.008000   ; qtot 0.623185
  979         c3     33    bbb     C8    979 -0.72423400  12.010000   ; qtot -0.101049
  980         h1     33    bbb    H15    980 0.25637600   1.008000   ; qtot 0.155327
  981         h1     33    bbb    H16    981 0.25637600   1.008000   ; qtot 0.411703
  982         c3     33    bbb     C9    982 -0.72423400  12.010000   ; qtot -0.312531
  983         h1     33    bbb    H17    983 0.25637600   1.008000   ; qtot -0.056155
  984         h1     33    bbb    H18    984 0.25637600   1.008000   ; qtot 0.200221
  985         os     33    bbb     O1    985 -0.20025300  16.000000   ; qtot -0.000032
; residue   34 bbb rtp bbb q -0.0
  986         n3     34    bbb     N1    986 -0.59685800  14.010000   ; qtot -0.596890
  987         c3     34    bbb     C1    987 0.10137000  12.010000   ; qtot -0.495520
  988         h1     34    bbb     H1    988 0.04411300   1.008000   ; qtot -0.451407
  989         h1     34    bbb     H2    989 0.04411300   1.008000   ; qtot -0.407294
  990         c3     34    bbb     C2    990 0.10137000  12.010000   ; qtot -0.305924
  991         h1     34    bbb     H3    991 0.04411300   1.008000   ; qtot -0.261811
  992         h1     34    bbb     H4    992 0.04411300   1.008000   ; qtot -0.217698
  993         c3     34    bbb     C3    993 -0.00195300  12.010000   ; qtot -0.219651
  994         h1     34    bbb     H5    994 0.05064400   1.008000   ; qtot -0.169007
  995         h1     34    bbb     H6    995 0.05064400   1.008000   ; qtot -0.118363
  996         c3     34    bbb     C4    996 -0.01612100  12.010000   ; qtot -0.134484
  997         hc     34    bbb     H7    997 0.04936100   1.008000   ; qtot -0.085123
  998         hc     34    bbb     H8    998 0.04936100   1.008000   ; qtot -0.035762
  999         c3     34    bbb     C5    999 0.11363000  12.010000   ; qtot 0.077868
 1000         hc     34    bbb     H9   1000 0.06265900   1.008000   ; qtot 0.140527
 1001         hc     34    bbb    H10   1001 0.06265900   1.008000   ; qtot 0.203186
 1002         c3     34    bbb     C6   1002 0.11363000  12.010000   ; qtot 0.316816
 1003         hc     34    bbb    H11   1003 0.06265900   1.008000   ; qtot 0.379475
 1004         hc     34    bbb    H12   1004 0.06265900   1.008000   ; qtot 0.442134
 1005         c3     34    bbb     C7   1005 0.05858200  12.010000   ; qtot 0.500716
 1006         h1     34    bbb    H13   1006 0.06123400   1.008000   ; qtot 0.561950
 1007         h1     34    bbb    H14   1007 0.06123400   1.008000   ; qtot 0.623184
 1008         c3     34    bbb     C8   1008 -0.72423400  12.010000   ; qtot -0.101050
 1009         h1     34    bbb    H15   1009 0.25637600   1.008000   ; qtot 0.155326
 1010         h1     34    bbb    H16   1010 0.25637600   1.008000   ; qtot 0.411702
 1011         c3     34    bbb     C9   1011 -0.72423400  12.010000   ; qtot -0.312532
 1012         h1     34    bbb    H17   1012 0.25637600   1.008000   ; qtot -0.056156
 1013         h1     34    bbb    H18   1013 0.25637600   1.008000   ; qtot 0.200220
 1014         os     34    bbb     O1   1014 -0.20025300  16.000000   ; qtot -0.000033
; residue   35 bbb rtp bbb q -0.0
 1015         n3     35    bbb     N1   1015 -0.59685800  14.010000   ; qtot -0.596891
 1016         c3     35    bbb     C1   1016 0.10137000  12.010000   ; qtot -0.495521
 1017         h1     35    bbb     H1   1017 0.04411300   1.008000   ; qtot -0.451408
 1018         h1     35    bbb     H2   1018 0.04411300   1.008000   ; qtot -0.407295
 1019         c3     35    bbb     C2   1019 0.10137000  12.010000   ; qtot -0.305925
 1020         h1     35    bbb     H3   1020 0.04411300   1.008000   ; qtot -0.261812
 1021         h1     35    bbb     H4   1021 0.04411300   1.008000   ; qtot -0.217699
 1022         c3     35    bbb     C3   1022 -0.00195300  12.010000   ; qtot -0.219652
 1023         h1     35    bbb     H5   1023 0.05064400   1.008000   ; qtot -0.169008
 1024         h1     35    bbb     H6   1024 0.05064400   1.008000   ; qtot -0.118364
 1025         c3     35    bbb     C4   1025 -0.01612100  12.010000   ; qtot -0.134485
 1026         hc     35    bbb     H7   1026 0.04936100   1.008000   ; qtot -0.085124
 1027         hc     35    bbb     H8   1027 0.04936100   1.008000   ; qtot -0.035763
 1028         c3     35    bbb     C5   1028 0.11363000  12.010000   ; qtot 0.077867
 1029         hc     35    bbb     H9   1029 0.06265900   1.008000   ; qtot 0.140526
 1030         hc     35    bbb    H10   1030 0.06265900   1.008000   ; qtot 0.203185
 1031         c3     35    bbb     C6   1031 0.11363000  12.010000   ; qtot 0.316815
 1032         hc     35    bbb    H11   1032 0.06265900   1.008000   ; qtot 0.379474
 1033         hc     35    bbb    H12   1033 0.06265900   1.008000   ; qtot 0.442133
 1034         c3     35    bbb     C7   1034 0.05858200  12.010000   ; qtot 0.500715
 1035         h1     35    bbb    H13   1035 0.06123400   1.008000   ; qtot 0.561949
 1036         h1     35    bbb    H14   1036 0.06123400   1.008000   ; qtot 0.623183
 1037         c3     35    bbb     C8   1037 -0.72423400  12.010000   ; qtot -0.101051
 1038         h1     35    bbb    H15   1038 0.25637600   1.008000   ; qtot 0.155325
 1039         h1     35    bbb    H16   1039 0.25637600   1.008000   ; qtot 0.411701
 1040         c3     35    bbb     C9   1040 -0.72423400  12.010000   ; qtot -0.312533
 1041         h1     35    bbb    H17   1041 0.25637600   1.008000   ; qtot -0.056157
 1042         h1     35    bbb    H18   1042 0.25637600   1.008000   ; qtot 0.200219
 1043         os     35    bbb     O1   1043 -0.20025300  16.000000   ; qtot -0.000034
; residue   36 bbb rtp bbb q -0.0
 1044         n3     36    bbb     N1   1044 -0.59685800  14.010000   ; qtot -0.596892
 1045         c3     36    bbb     C1   1045 0.10137000  12.010000   ; qtot -0.495522
 1046         h1     36    bbb     H1   1046 0.04411300   1.008000   ; qtot -0.451409
 1047         h1     36    bbb     H2   1047 0.04411300   1.008000   ; qtot -0.407296
 1048         c3     36    bbb     C2   1048 0.10137000  12.010000   ; qtot -0.305926
 1049         h1     36    bbb     H3   1049 0.04411300   1.008000   ; qtot -0.261813
 1050         h1     36    bbb     H4   1050 0.04411300   1.008000   ; qtot -0.217700
 1051         c3     36    bbb     C3   1051 -0.00195300  12.010000   ; qtot -0.219653
 1052         h1     36    bbb     H5   1052 0.05064400   1.008000   ; qtot -0.169009
 1053         h1     36    bbb     H6   1053 0.05064400   1.008000   ; qtot -0.118365
 1054         c3     36    bbb     C4   1054 -0.01612100  12.010000   ; qtot -0.134486
 1055         hc     36    bbb     H7   1055 0.04936100   1.008000   ; qtot -0.085125
 1056         hc     36    bbb     H8   1056 0.04936100   1.008000   ; qtot -0.035764
 1057         c3     36    bbb     C5   1057 0.11363000  12.010000   ; qtot 0.077866
 1058         hc     36    bbb     H9   1058 0.06265900   1.008000   ; qtot 0.140525
 1059         hc     36    bbb    H10   1059 0.06265900   1.008000   ; qtot 0.203184
 1060         c3     36    bbb     C6   1060 0.11363000  12.010000   ; qtot 0.316814
 1061         hc     36    bbb    H11   1061 0.06265900   1.008000   ; qtot 0.379473
 1062         hc     36    bbb    H12   1062 0.06265900   1.008000   ; qtot 0.442132
 1063         c3     36    bbb     C7   1063 0.05858200  12.010000   ; qtot 0.500714
 1064         h1     36    bbb    H13   1064 0.06123400   1.008000   ; qtot 0.561948
 1065         h1     36    bbb    H14   1065 0.06123400   1.008000   ; qtot 0.623182
 1066         c3     36    bbb     C8   1066 -0.72423400  12.010000   ; qtot -0.101052
 1067         h1     36    bbb    H15   1067 0.25637600   1.008000   ; qtot 0.155324
 1068         h1     36    bbb    H16   1068 0.25637600   1.008000   ; qtot 0.411700
 1069         c3     36    bbb     C9   1069 -0.72423400  12.010000   ; qtot -0.312534
 1070         h1     36    bbb    H17   1070 0.25637600   1.008000   ; qtot -0.056158
 1071         h1     36    bbb    H18   1071 0.25637600   1.008000   ; qtot 0.200218
 1072         os     36    bbb     O1   1072 -0.20025300  16.000000   ; qtot -0.000035
; residue   37 bbb rtp bbb q -0.0
 1073         n3     37    bbb     N1   1073 -0.59685800  14.010000   ; qtot -0.596893
 1074         c3     37    bbb     C1   1074 0.10137000  12.010000   ; qtot -0.495523
 1075         h1     37    bbb     H1   1075 0.04411300   1.008000   ; qtot -0.451410
 1076         h1     37    bbb     H2   1076 0.04411300   1.008000   ; qtot -0.407297
 1077         c3     37    bbb     C2   1077 0.10137000  12.010000   ; qtot -0.305927
 1078         h1     37    bbb     H3   1078 0.04411300   1.008000   ; qtot -0.261814
 1079         h1     37    bbb     H4   1079 0.04411300   1.008000   ; qtot -0.217701
 1080         c3     37    bbb     C3   1080 -0.00195300  12.010000   ; qtot -0.219654
 1081         h1     37    bbb     H5   1081 0.05064400   1.008000   ; qtot -0.169010
 1082         h1     37    bbb     H6   1082 0.05064400   1.008000   ; qtot -0.118366
 1083         c3     37    bbb     C4   1083 -0.01612100  12.010000   ; qtot -0.134487
 1084         hc     37    bbb     H7   1084 0.04936100   1.008000   ; qtot -0.085126
 1085         hc     37    bbb     H8   1085 0.04936100   1.008000   ; qtot -0.035765
 1086         c3     37    bbb     C5   1086 0.11363000  12.010000   ; qtot 0.077865
 1087         hc     37    bbb     H9   1087 0.06265900   1.008000   ; qtot 0.140524
 1088         hc     37    bbb    H10   1088 0.06265900   1.008000   ; qtot 0.203183
 1089         c3     37    bbb     C6   1089 0.11363000  12.010000   ; qtot 0.316813
 1090         hc     37    bbb    H11   1090 0.06265900   1.008000   ; qtot 0.379472
 1091         hc     37    bbb    H12   1091 0.06265900   1.008000   ; qtot 0.442131
 1092         c3     37    bbb     C7   1092 0.05858200  12.010000   ; qtot 0.500713
 1093         h1     37    bbb    H13   1093 0.06123400   1.008000   ; qtot 0.561947
 1094         h1     37    bbb    H14   1094 0.06123400   1.008000   ; qtot 0.623181
 1095         c3     37    bbb     C8   1095 -0.72423400  12.010000   ; qtot -0.101053
 1096         h1     37    bbb    H15   1096 0.25637600   1.008000   ; qtot 0.155323
 1097         h1     37    bbb    H16   1097 0.25637600   1.008000   ; qtot 0.411699
 1098         c3     37    bbb     C9   1098 -0.72423400  12.010000   ; qtot -0.312535
 1099         h1     37    bbb    H17   1099 0.25637600   1.008000   ; qtot -0.056159
 1100         h1     37    bbb    H18   1100 0.25637600   1.008000   ; qtot 0.200217
 1101         os     37    bbb     O1   1101 -0.20025300  16.000000   ; qtot -0.000036
; residue   38 bbb rtp bbb q -0.0
 1102         n3     38    bbb     N1   1102 -0.59685800  14.010000   ; qtot -0.596894
 1103         c3     38    bbb     C1   1103 0.10137000  12.010000   ; qtot -0.495524
 1104         h1     38    bbb     H1   1104 0.04411300   1.008000   ; qtot -0.451411
 1105         h1     38    bbb     H2   1105 0.04411300   1.008000   ; qtot -0.407298
 1106         c3     38    bbb     C2   1106 0.10137000  12.010000   ; qtot -0.305928
 1107         h1     38    bbb     H3   1107 0.04411300   1.008000   ; qtot -0.261815
 1108         h1     38    bbb     H4   1108 0.04411300   1.008000   ; qtot -0.217702
 1109         c3     38    bbb     C3   1109 -0.00195300  12.010000   ; qtot -0.219655
 1110         h1     38    bbb     H5   1110 0.05064400   1.008000   ; qtot -0.169011
 1111         h1     38    bbb     H6   1111 0.05064400   1.008000   ; qtot -0.118367
 1112         c3     38    bbb     C4   1112 -0.01612100  12.010000   ; qtot -0.134488
 1113         hc     38    bbb     H7   1113 0.04936100   1.008000   ; qtot -0.085127
 1114         hc     38    bbb     H8   1114 0.04936100   1.008000   ; qtot -0.035766
 1115         c3     38    bbb     C5   1115 0.11363000  12.010000   ; qtot 0.077864
 1116         hc     38    bbb     H9   1116 0.06265900   1.008000   ; qtot 0.140523
 1117         hc     38    bbb    H10   1117 0.06265900   1.008000   ; qtot 0.203182
 1118         c3     38    bbb     C6   1118 0.11363000  12.010000   ; qtot 0.316812
 1119         hc     38    bbb    H11   1119 0.06265900   1.008000   ; qtot 0.379471
 1120         hc     38    bbb    H12   1120 0.06265900   1.008000   ; qtot 0.442130
 1121         c3     38    bbb     C7   1121 0.05858200  12.010000   ; qtot 0.500712
 1122         h1     38    bbb    H13   1122 0.06123400   1.008000   ; qtot 0.561946
 1123         h1     38    bbb    H14   1123 0.06123400   1.008000   ; qtot 0.623180
 1124         c3     38    bbb     C8   1124 -0.72423400  12.010000   ; qtot -0.101054
 1125         h1     38    bbb    H15   1125 0.25637600   1.008000   ; qtot 0.155322
 1126         h1     38    bbb    H16   1126 0.25637600   1.008000   ; qtot 0.411698
 1127         c3     38    bbb     C9   1127 -0.72423400  12.010000   ; qtot -0.312536
 1128         h1     38    bbb    H17   1128 0.25637600   1.008000   ; qtot -0.056160
 1129         h1     38    bbb    H18   1129 0.25637600   1.008000   ; qtot 0.200216
 1130         os     38    bbb     O1   1130 -0.20025300  16.000000   ; qtot -0.000037
; residue   39 bbb rtp bbb q -0.0
 1131         n3     39    bbb     N1   1131 -0.59685800  14.010000   ; qtot -0.596895
 1132         c3     39    bbb     C1   1132 0.10137000  12.010000   ; qtot -0.495525
 1133         h1     39    bbb     H1   1133 0.04411300   1.008000   ; qtot -0.451412
 1134         h1     39    bbb     H2   1134 0.04411300   1.008000   ; qtot -0.407299
 1135         c3     39    bbb     C2   1135 0.10137000  12.010000   ; qtot -0.305929
 1136         h1     39    bbb     H3   1136 0.04411300   1.008000   ; qtot -0.261816
 1137         h1     39    bbb     H4   1137 0.04411300   1.008000   ; qtot -0.217703
 1138         c3     39    bbb     C3   1138 -0.00195300  12.010000   ; qtot -0.219656
 1139         h1     39    bbb     H5   1139 0.05064400   1.008000   ; qtot -0.169012
 1140         h1     39    bbb     H6   1140 0.05064400   1.008000   ; qtot -0.118368
 1141         c3     39    bbb     C4   1141 -0.01612100  12.010000   ; qtot -0.134489
 1142         hc     39    bbb     H7   1142 0.04936100   1.008000   ; qtot -0.085128
 1143         hc     39    bbb     H8   1143 0.04936100   1.008000   ; qtot -0.035767
 1144         c3     39    bbb     C5   1144 0.11363000  12.010000   ; qtot 0.077863
 1145         hc     39    bbb     H9   1145 0.06265900   1.008000   ; qtot 0.140522
 1146         hc     39    bbb    H10   1146 0.06265900   1.008000   ; qtot 0.203181
 1147         c3     39    bbb     C6   1147 0.11363000  12.010000   ; qtot 0.316811
 1148         hc     39    bbb    H11   1148 0.06265900   1.008000   ; qtot 0.379470
 1149         hc     39    bbb    H12   1149 0.06265900   1.008000   ; qtot 0.442129
 1150         c3     39    bbb     C7   1150 0.05858200  12.010000   ; qtot 0.500711
 1151         h1     39    bbb    H13   1151 0.06123400   1.008000   ; qtot 0.561945
 1152         h1     39    bbb    H14   1152 0.06123400   1.008000   ; qtot 0.623179
 1153         c3     39    bbb     C8   1153 -0.72423400  12.010000   ; qtot -0.101055
 1154         h1     39    bbb    H15   1154 0.25637600   1.008000   ; qtot 0.155321
 1155         h1     39    bbb    H16   1155 0.25637600   1.008000   ; qtot 0.411697
 1156         c3     39    bbb     C9   1156 -0.72423400  12.010000   ; qtot -0.312537
 1157         h1     39    bbb    H17   1157 0.25637600   1.008000   ; qtot -0.056161
 1158         h1     39    bbb    H18   1158 0.25637600   1.008000   ; qtot 0.200215
 1159         os     39    bbb     O1   1159 -0.20025300  16.000000   ; qtot -0.000038
; residue   40 bbb rtp bbb q -0.0
 1160         n3     40    bbb     N1   1160 -0.59685800  14.010000   ; qtot -0.596896
 1161         c3     40    bbb     C1   1161 0.10137000  12.010000   ; qtot -0.495526
 1162         h1     40    bbb     H1   1162 0.04411300   1.008000   ; qtot -0.451413
 1163         h1     40    bbb     H2   1163 0.04411300   1.008000   ; qtot -0.407300
 1164         c3     40    bbb     C2   1164 0.10137000  12.010000   ; qtot -0.305930
 1165         h1     40    bbb     H3   1165 0.04411300   1.008000   ; qtot -0.261817
 1166         h1     40    bbb     H4   1166 0.04411300   1.008000   ; qtot -0.217704
 1167         c3     40    bbb     C3   1167 -0.00195300  12.010000   ; qtot -0.219657
 1168         h1     40    bbb     H5   1168 0.05064400   1.008000   ; qtot -0.169013
 1169         h1     40    bbb     H6   1169 0.05064400   1.008000   ; qtot -0.118369
 1170         c3     40    bbb     C4   1170 -0.01612100  12.010000   ; qtot -0.134490
 1171         hc     40    bbb     H7   1171 0.04936100   1.008000   ; qtot -0.085129
 1172         hc     40    bbb     H8   1172 0.04936100   1.008000   ; qtot -0.035768
 1173         c3     40    bbb     C5   1173 0.11363000  12.010000   ; qtot 0.077862
 1174         hc     40    bbb     H9   1174 0.06265900   1.008000   ; qtot 0.140521
 1175         hc     40    bbb    H10   1175 0.06265900   1.008000   ; qtot 0.203180
 1176         c3     40    bbb     C6   1176 0.11363000  12.010000   ; qtot 0.316810
 1177         hc     40    bbb    H11   1177 0.06265900   1.008000   ; qtot 0.379469
 1178         hc     40    bbb    H12   1178 0.06265900   1.008000   ; qtot 0.442128
 1179         c3     40    bbb     C7   1179 0.05858200  12.010000   ; qtot 0.500710
 1180         h1     40    bbb    H13   1180 0.06123400   1.008000   ; qtot 0.561944
 1181         h1     40    bbb    H14   1181 0.06123400   1.008000   ; qtot 0.623178
 1182         c3     40    bbb     C8   1182 -0.72423400  12.010000   ; qtot -0.101056
 1183         h1     40    bbb    H15   1183 0.25637600   1.008000   ; qtot 0.155320
 1184         h1     40    bbb    H16   1184 0.25637600   1.008000   ; qtot 0.411696
 1185         c3     40    bbb     C9   1185 -0.72423400  12.010000   ; qtot -0.312538
 1186         h1     40    bbb    H17   1186 0.25637600   1.008000   ; qtot -0.056162
 1187         h1     40    bbb    H18   1187 0.25637600   1.008000   ; qtot 0.200214
 1188         os     40    bbb     O1   1188 -0.20025300  16.000000   ; qtot -0.000039
; residue   41 bbb rtp bbb q -0.0
 1189         n3     41    bbb     N1   1189 -0.59685800  14.010000   ; qtot -0.596897
 1190         c3     41    bbb     C1   1190 0.10137000  12.010000   ; qtot -0.495527
 1191         h1     41    bbb     H1   1191 0.04411300   1.008000   ; qtot -0.451414
 1192         h1     41    bbb     H2   1192 0.04411300   1.008000   ; qtot -0.407301
 1193         c3     41    bbb     C2   1193 0.10137000  12.010000   ; qtot -0.305931
 1194         h1     41    bbb     H3   1194 0.04411300   1.008000   ; qtot -0.261818
 1195         h1     41    bbb     H4   1195 0.04411300   1.008000   ; qtot -0.217705
 1196         c3     41    bbb     C3   1196 -0.00195300  12.010000   ; qtot -0.219658
 1197         h1     41    bbb     H5   1197 0.05064400   1.008000   ; qtot -0.169014
 1198         h1     41    bbb     H6   1198 0.05064400   1.008000   ; qtot -0.118370
 1199         c3     41    bbb     C4   1199 -0.01612100  12.010000   ; qtot -0.134491
 1200         hc     41    bbb     H7   1200 0.04936100   1.008000   ; qtot -0.085130
 1201         hc     41    bbb     H8   1201 0.04936100   1.008000   ; qtot -0.035769
 1202         c3     41    bbb     C5   1202 0.11363000  12.010000   ; qtot 0.077861
 1203         hc     41    bbb     H9   1203 0.06265900   1.008000   ; qtot 0.140520
 1204         hc     41    bbb    H10   1204 0.06265900   1.008000   ; qtot 0.203179
 1205         c3     41    bbb     C6   1205 0.11363000  12.010000   ; qtot 0.316809
 1206         hc     41    bbb    H11   1206 0.06265900   1.008000   ; qtot 0.379468
 1207         hc     41    bbb    H12   1207 0.06265900   1.008000   ; qtot 0.442127
 1208         c3     41    bbb     C7   1208 0.05858200  12.010000   ; qtot 0.500709
 1209         h1     41    bbb    H13   1209 0.06123400   1.008000   ; qtot 0.561943
 1210         h1     41    bbb    H14   1210 0.06123400   1.008000   ; qtot 0.623177
 1211         c3     41    bbb     C8   1211 -0.72423400  12.010000   ; qtot -0.101057
 1212         h1     41    bbb    H15   1212 0.25637600   1.008000   ; qtot 0.155319
 1213         h1     41    bbb    H16   1213 0.25637600   1.008000   ; qtot 0.411695
 1214         c3     41    bbb     C9   1214 -0.72423400  12.010000   ; qtot -0.312539
 1215         h1     41    bbb    H17   1215 0.25637600   1.008000   ; qtot -0.056163
 1216         h1     41    bbb    H18   1216 0.25637600   1.008000   ; qtot 0.200213
 1217         os     41    bbb     O1   1217 -0.20025300  16.000000   ; qtot -0.000040
; residue   42 bbb rtp bbb q -0.0
 1218         n3     42    bbb     N1   1218 -0.59685800  14.010000   ; qtot -0.596898
 1219         c3     42    bbb     C1   1219 0.10137000  12.010000   ; qtot -0.495528
 1220         h1     42    bbb     H1   1220 0.04411300   1.008000   ; qtot -0.451415
 1221         h1     42    bbb     H2   1221 0.04411300   1.008000   ; qtot -0.407302
 1222         c3     42    bbb     C2   1222 0.10137000  12.010000   ; qtot -0.305932
 1223         h1     42    bbb     H3   1223 0.04411300   1.008000   ; qtot -0.261819
 1224         h1     42    bbb     H4   1224 0.04411300   1.008000   ; qtot -0.217706
 1225         c3     42    bbb     C3   1225 -0.00195300  12.010000   ; qtot -0.219659
 1226         h1     42    bbb     H5   1226 0.05064400   1.008000   ; qtot -0.169015
 1227         h1     42    bbb     H6   1227 0.05064400   1.008000   ; qtot -0.118371
 1228         c3     42    bbb     C4   1228 -0.01612100  12.010000   ; qtot -0.134492
 1229         hc     42    bbb     H7   1229 0.04936100   1.008000   ; qtot -0.085131
 1230         hc     42    bbb     H8   1230 0.04936100   1.008000   ; qtot -0.035770
 1231         c3     42    bbb     C5   1231 0.11363000  12.010000   ; qtot 0.077860
 1232         hc     42    bbb     H9   1232 0.06265900   1.008000   ; qtot 0.140519
 1233         hc     42    bbb    H10   1233 0.06265900   1.008000   ; qtot 0.203178
 1234         c3     42    bbb     C6   1234 0.11363000  12.010000   ; qtot 0.316808
 1235         hc     42    bbb    H11   1235 0.06265900   1.008000   ; qtot 0.379467
 1236         hc     42    bbb    H12   1236 0.06265900   1.008000   ; qtot 0.442126
 1237         c3     42    bbb     C7   1237 0.05858200  12.010000   ; qtot 0.500708
 1238         h1     42    bbb    H13   1238 0.06123400   1.008000   ; qtot 0.561942
 1239         h1     42    bbb    H14   1239 0.06123400   1.008000   ; qtot 0.623176
 1240         c3     42    bbb     C8   1240 -0.72423400  12.010000   ; qtot -0.101058
 1241         h1     42    bbb    H15   1241 0.25637600   1.008000   ; qtot 0.155318
 1242         h1     42    bbb    H16   1242 0.25637600   1.008000   ; qtot 0.411694
 1243         c3     42    bbb     C9   1243 -0.72423400  12.010000   ; qtot -0.312540
 1244         h1     42    bbb    H17   1244 0.25637600   1.008000   ; qtot -0.056164
 1245         h1     42    bbb    H18   1245 0.25637600   1.008000   ; qtot 0.200212
 1246         os     42    bbb     O1   1246 -0.20025300  16.000000   ; qtot -0.000041
; residue   43 bbb rtp bbb q -0.0
 1247         n3     43    bbb     N1   1247 -0.59685800  14.010000   ; qtot -0.596899
 1248         c3     43    bbb     C1   1248 0.10137000  12.010000   ; qtot -0.495529
 1249         h1     43    bbb     H1   1249 0.04411300   1.008000   ; qtot -0.451416
 1250         h1     43    bbb     H2   1250 0.04411300   1.008000   ; qtot -0.407303
 1251         c3     43    bbb     C2   1251 0.10137000  12.010000   ; qtot -0.305933
 1252         h1     43    bbb     H3   1252 0.04411300   1.008000   ; qtot -0.261820
 1253         h1     43    bbb     H4   1253 0.04411300   1.008000   ; qtot -0.217707
 1254         c3     43    bbb     C3   1254 -0.00195300  12.010000   ; qtot -0.219660
 1255         h1     43    bbb     H5   1255 0.05064400   1.008000   ; qtot -0.169016
 1256         h1     43    bbb     H6   1256 0.05064400   1.008000   ; qtot -0.118372
 1257         c3     43    bbb     C4   1257 -0.01612100  12.010000   ; qtot -0.134493
 1258         hc     43    bbb     H7   1258 0.04936100   1.008000   ; qtot -0.085132
 1259         hc     43    bbb     H8   1259 0.04936100   1.008000   ; qtot -0.035771
 1260         c3     43    bbb     C5   1260 0.11363000  12.010000   ; qtot 0.077859
 1261         hc     43    bbb     H9   1261 0.06265900   1.008000   ; qtot 0.140518
 1262         hc     43    bbb    H10   1262 0.06265900   1.008000   ; qtot 0.203177
 1263         c3     43    bbb     C6   1263 0.11363000  12.010000   ; qtot 0.316807
 1264         hc     43    bbb    H11   1264 0.06265900   1.008000   ; qtot 0.379466
 1265         hc     43    bbb    H12   1265 0.06265900   1.008000   ; qtot 0.442125
 1266         c3     43    bbb     C7   1266 0.05858200  12.010000   ; qtot 0.500707
 1267         h1     43    bbb    H13   1267 0.06123400   1.008000   ; qtot 0.561941
 1268         h1     43    bbb    H14   1268 0.06123400   1.008000   ; qtot 0.623175
 1269         c3     43    bbb     C8   1269 -0.72423400  12.010000   ; qtot -0.101059
 1270         h1     43    bbb    H15   1270 0.25637600   1.008000   ; qtot 0.155317
 1271         h1     43    bbb    H16   1271 0.25637600   1.008000   ; qtot 0.411693
 1272         c3     43    bbb     C9   1272 -0.72423400  12.010000   ; qtot -0.312541
 1273         h1     43    bbb    H17   1273 0.25637600   1.008000   ; qtot -0.056165
 1274         h1     43    bbb    H18   1274 0.25637600   1.008000   ; qtot 0.200211
 1275         os     43    bbb     O1   1275 -0.20025300  16.000000   ; qtot -0.000042
; residue   44 bbb rtp bbb q -0.0
 1276         n3     44    bbb     N1   1276 -0.59685800  14.010000   ; qtot -0.596900
 1277         c3     44    bbb     C1   1277 0.10137000  12.010000   ; qtot -0.495530
 1278         h1     44    bbb     H1   1278 0.04411300   1.008000   ; qtot -0.451417
 1279         h1     44    bbb     H2   1279 0.04411300   1.008000   ; qtot -0.407304
 1280         c3     44    bbb     C2   1280 0.10137000  12.010000   ; qtot -0.305934
 1281         h1     44    bbb     H3   1281 0.04411300   1.008000   ; qtot -0.261821
 1282         h1     44    bbb     H4   1282 0.04411300   1.008000   ; qtot -0.217708
 1283         c3     44    bbb     C3   1283 -0.00195300  12.010000   ; qtot -0.219661
 1284         h1     44    bbb     H5   1284 0.05064400   1.008000   ; qtot -0.169017
 1285         h1     44    bbb     H6   1285 0.05064400   1.008000   ; qtot -0.118373
 1286         c3     44    bbb     C4   1286 -0.01612100  12.010000   ; qtot -0.134494
 1287         hc     44    bbb     H7   1287 0.04936100   1.008000   ; qtot -0.085133
 1288         hc     44    bbb     H8   1288 0.04936100   1.008000   ; qtot -0.035772
 1289         c3     44    bbb     C5   1289 0.11363000  12.010000   ; qtot 0.077858
 1290         hc     44    bbb     H9   1290 0.06265900   1.008000   ; qtot 0.140517
 1291         hc     44    bbb    H10   1291 0.06265900   1.008000   ; qtot 0.203176
 1292         c3     44    bbb     C6   1292 0.11363000  12.010000   ; qtot 0.316806
 1293         hc     44    bbb    H11   1293 0.06265900   1.008000   ; qtot 0.379465
 1294         hc     44    bbb    H12   1294 0.06265900   1.008000   ; qtot 0.442124
 1295         c3     44    bbb     C7   1295 0.05858200  12.010000   ; qtot 0.500706
 1296         h1     44    bbb    H13   1296 0.06123400   1.008000   ; qtot 0.561940
 1297         h1     44    bbb    H14   1297 0.06123400   1.008000   ; qtot 0.623174
 1298         c3     44    bbb     C8   1298 -0.72423400  12.010000   ; qtot -0.101060
 1299         h1     44    bbb    H15   1299 0.25637600   1.008000   ; qtot 0.155316
 1300         h1     44    bbb    H16   1300 0.25637600   1.008000   ; qtot 0.411692
 1301         c3     44    bbb     C9   1301 -0.72423400  12.010000   ; qtot -0.312542
 1302         h1     44    bbb    H17   1302 0.25637600   1.008000   ; qtot -0.056166
 1303         h1     44    bbb    H18   1303 0.25637600   1.008000   ; qtot 0.200210
 1304         os     44    bbb     O1   1304 -0.20025300  16.000000   ; qtot -0.000043
; residue   45 bbb rtp bbb q -0.0
 1305         n3     45    bbb     N1   1305 -0.59685800  14.010000   ; qtot -0.596901
 1306         c3     45    bbb     C1   1306 0.10137000  12.010000   ; qtot -0.495531
 1307         h1     45    bbb     H1   1307 0.04411300   1.008000   ; qtot -0.451418
 1308         h1     45    bbb     H2   1308 0.04411300   1.008000   ; qtot -0.407305
 1309         c3     45    bbb     C2   1309 0.10137000  12.010000   ; qtot -0.305935
 1310         h1     45    bbb     H3   1310 0.04411300   1.008000   ; qtot -0.261822
 1311         h1     45    bbb     H4   1311 0.04411300   1.008000   ; qtot -0.217709
 1312         c3     45    bbb     C3   1312 -0.00195300  12.010000   ; qtot -0.219662
 1313         h1     45    bbb     H5   1313 0.05064400   1.008000   ; qtot -0.169018
 1314         h1     45    bbb     H6   1314 0.05064400   1.008000   ; qtot -0.118374
 1315         c3     45    bbb     C4   1315 -0.01612100  12.010000   ; qtot -0.134495
 1316         hc     45    bbb     H7   1316 0.04936100   1.008000   ; qtot -0.085134
 1317         hc     45    bbb     H8   1317 0.04936100   1.008000   ; qtot -0.035773
 1318         c3     45    bbb     C5   1318 0.11363000  12.010000   ; qtot 0.077857
 1319         hc     45    bbb     H9   1319 0.06265900   1.008000   ; qtot 0.140516
 1320         hc     45    bbb    H10   1320 0.06265900   1.008000   ; qtot 0.203175
 1321         c3     45    bbb     C6   1321 0.11363000  12.010000   ; qtot 0.316805
 1322         hc     45    bbb    H11   1322 0.06265900   1.008000   ; qtot 0.379464
 1323         hc     45    bbb    H12   1323 0.06265900   1.008000   ; qtot 0.442123
 1324         c3     45    bbb     C7   1324 0.05858200  12.010000   ; qtot 0.500705
 1325         h1     45    bbb    H13   1325 0.06123400   1.008000   ; qtot 0.561939
 1326         h1     45    bbb    H14   1326 0.06123400   1.008000   ; qtot 0.623173
 1327         c3     45    bbb     C8   1327 -0.72423400  12.010000   ; qtot -0.101061
 1328         h1     45    bbb    H15   1328 0.25637600   1.008000   ; qtot 0.155315
 1329         h1     45    bbb    H16   1329 0.25637600   1.008000   ; qtot 0.411691
 1330         c3     45    bbb     C9   1330 -0.72423400  12.010000   ; qtot -0.312543
 1331         h1     45    bbb    H17   1331 0.25637600   1.008000   ; qtot -0.056167
 1332         h1     45    bbb    H18   1332 0.25637600   1.008000   ; qtot 0.200209
 1333         os     45    bbb     O1   1333 -0.20025300  16.000000   ; qtot -0.000044
; residue   46 bbb rtp bbb q -0.0
 1334         n3     46    bbb     N1   1334 -0.59685800  14.010000   ; qtot -0.596902
 1335         c3     46    bbb     C1   1335 0.10137000  12.010000   ; qtot -0.495532
 1336         h1     46    bbb     H1   1336 0.04411300   1.008000   ; qtot -0.451419
 1337         h1     46    bbb     H2   1337 0.04411300   1.008000   ; qtot -0.407306
 1338         c3     46    bbb     C2   1338 0.10137000  12.010000   ; qtot -0.305936
 1339         h1     46    bbb     H3   1339 0.04411300   1.008000   ; qtot -0.261823
 1340         h1     46    bbb     H4   1340 0.04411300   1.008000   ; qtot -0.217710
 1341         c3     46    bbb     C3   1341 -0.00195300  12.010000   ; qtot -0.219663
 1342         h1     46    bbb     H5   1342 0.05064400   1.008000   ; qtot -0.169019
 1343         h1     46    bbb     H6   1343 0.05064400   1.008000   ; qtot -0.118375
 1344         c3     46    bbb     C4   1344 -0.01612100  12.010000   ; qtot -0.134496
 1345         hc     46    bbb     H7   1345 0.04936100   1.008000   ; qtot -0.085135
 1346         hc     46    bbb     H8   1346 0.04936100   1.008000   ; qtot -0.035774
 1347         c3     46    bbb     C5   1347 0.11363000  12.010000   ; qtot 0.077856
 1348         hc     46    bbb     H9   1348 0.06265900   1.008000   ; qtot 0.140515
 1349         hc     46    bbb    H10   1349 0.06265900   1.008000   ; qtot 0.203174
 1350         c3     46    bbb     C6   1350 0.11363000  12.010000   ; qtot 0.316804
 1351         hc     46    bbb    H11   1351 0.06265900   1.008000   ; qtot 0.379463
 1352         hc     46    bbb    H12   1352 0.06265900   1.008000   ; qtot 0.442122
 1353         c3     46    bbb     C7   1353 0.05858200  12.010000   ; qtot 0.500704
 1354         h1     46    bbb    H13   1354 0.06123400   1.008000   ; qtot 0.561938
 1355         h1     46    bbb    H14   1355 0.06123400   1.008000   ; qtot 0.623172
 1356         c3     46    bbb     C8   1356 -0.72423400  12.010000   ; qtot -0.101062
 1357         h1     46    bbb    H15   1357 0.25637600   1.008000   ; qtot 0.155314
 1358         h1     46    bbb    H16   1358 0.25637600   1.008000   ; qtot 0.411690
 1359         c3     46    bbb     C9   1359 -0.72423400  12.010000   ; qtot -0.312544
 1360         h1     46    bbb    H17   1360 0.25637600   1.008000   ; qtot -0.056168
 1361         h1     46    bbb    H18   1361 0.25637600   1.008000   ; qtot 0.200208
 1362         os     46    bbb     O1   1362 -0.20025300  16.000000   ; qtot -0.000045
; residue   47 bbb rtp bbb q -0.0
 1363         n3     47    bbb     N1   1363 -0.59685800  14.010000   ; qtot -0.596903
 1364         c3     47    bbb     C1   1364 0.10137000  12.010000   ; qtot -0.495533
 1365         h1     47    bbb     H1   1365 0.04411300   1.008000   ; qtot -0.451420
 1366         h1     47    bbb     H2   1366 0.04411300   1.008000   ; qtot -0.407307
 1367         c3     47    bbb     C2   1367 0.10137000  12.010000   ; qtot -0.305937
 1368         h1     47    bbb     H3   1368 0.04411300   1.008000   ; qtot -0.261824
 1369         h1     47    bbb     H4   1369 0.04411300   1.008000   ; qtot -0.217711
 1370         c3     47    bbb     C3   1370 -0.00195300  12.010000   ; qtot -0.219664
 1371         h1     47    bbb     H5   1371 0.05064400   1.008000   ; qtot -0.169020
 1372         h1     47    bbb     H6   1372 0.05064400   1.008000   ; qtot -0.118376
 1373         c3     47    bbb     C4   1373 -0.01612100  12.010000   ; qtot -0.134497
 1374         hc     47    bbb     H7   1374 0.04936100   1.008000   ; qtot -0.085136
 1375         hc     47    bbb     H8   1375 0.04936100   1.008000   ; qtot -0.035775
 1376         c3     47    bbb     C5   1376 0.11363000  12.010000   ; qtot 0.077855
 1377         hc     47    bbb     H9   1377 0.06265900   1.008000   ; qtot 0.140514
 1378         hc     47    bbb    H10   1378 0.06265900   1.008000   ; qtot 0.203173
 1379         c3     47    bbb     C6   1379 0.11363000  12.010000   ; qtot 0.316803
 1380         hc     47    bbb    H11   1380 0.06265900   1.008000   ; qtot 0.379462
 1381         hc     47    bbb    H12   1381 0.06265900   1.008000   ; qtot 0.442121
 1382         c3     47    bbb     C7   1382 0.05858200  12.010000   ; qtot 0.500703
 1383         h1     47    bbb    H13   1383 0.06123400   1.008000   ; qtot 0.561937
 1384         h1     47    bbb    H14   1384 0.06123400   1.008000   ; qtot 0.623171
 1385         c3     47    bbb     C8   1385 -0.72423400  12.010000   ; qtot -0.101063
 1386         h1     47    bbb    H15   1386 0.25637600   1.008000   ; qtot 0.155313
 1387         h1     47    bbb    H16   1387 0.25637600   1.008000   ; qtot 0.411689
 1388         c3     47    bbb     C9   1388 -0.72423400  12.010000   ; qtot -0.312545
 1389         h1     47    bbb    H17   1389 0.25637600   1.008000   ; qtot -0.056169
 1390         h1     47    bbb    H18   1390 0.25637600   1.008000   ; qtot 0.200207
 1391         os     47    bbb     O1   1391 -0.20025300  16.000000   ; qtot -0.000046
; residue   48 bbb rtp bbb q -0.0
 1392         n3     48    bbb     N1   1392 -0.59685800  14.010000   ; qtot -0.596904
 1393         c3     48    bbb     C1   1393 0.10137000  12.010000   ; qtot -0.495534
 1394         h1     48    bbb     H1   1394 0.04411300   1.008000   ; qtot -0.451421
 1395         h1     48    bbb     H2   1395 0.04411300   1.008000   ; qtot -0.407308
 1396         c3     48    bbb     C2   1396 0.10137000  12.010000   ; qtot -0.305938
 1397         h1     48    bbb     H3   1397 0.04411300   1.008000   ; qtot -0.261825
 1398         h1     48    bbb     H4   1398 0.04411300   1.008000   ; qtot -0.217712
 1399         c3     48    bbb     C3   1399 -0.00195300  12.010000   ; qtot -0.219665
 1400         h1     48    bbb     H5   1400 0.05064400   1.008000   ; qtot -0.169021
 1401         h1     48    bbb     H6   1401 0.05064400   1.008000   ; qtot -0.118377
 1402         c3     48    bbb     C4   1402 -0.01612100  12.010000   ; qtot -0.134498
 1403         hc     48    bbb     H7   1403 0.04936100   1.008000   ; qtot -0.085137
 1404         hc     48    bbb     H8   1404 0.04936100   1.008000   ; qtot -0.035776
 1405         c3     48    bbb     C5   1405 0.11363000  12.010000   ; qtot 0.077854
 1406         hc     48    bbb     H9   1406 0.06265900   1.008000   ; qtot 0.140513
 1407         hc     48    bbb    H10   1407 0.06265900   1.008000   ; qtot 0.203172
 1408         c3     48    bbb     C6   1408 0.11363000  12.010000   ; qtot 0.316802
 1409         hc     48    bbb    H11   1409 0.06265900   1.008000   ; qtot 0.379461
 1410         hc     48    bbb    H12   1410 0.06265900   1.008000   ; qtot 0.442120
 1411         c3     48    bbb     C7   1411 0.05858200  12.010000   ; qtot 0.500702
 1412         h1     48    bbb    H13   1412 0.06123400   1.008000   ; qtot 0.561936
 1413         h1     48    bbb    H14   1413 0.06123400   1.008000   ; qtot 0.623170
 1414         c3     48    bbb     C8   1414 -0.72423400  12.010000   ; qtot -0.101064
 1415         h1     48    bbb    H15   1415 0.25637600   1.008000   ; qtot 0.155312
 1416         h1     48    bbb    H16   1416 0.25637600   1.008000   ; qtot 0.411688
 1417         c3     48    bbb     C9   1417 -0.72423400  12.010000   ; qtot -0.312546
 1418         h1     48    bbb    H17   1418 0.25637600   1.008000   ; qtot -0.056170
 1419         h1     48    bbb    H18   1419 0.25637600   1.008000   ; qtot 0.200206
 1420         os     48    bbb     O1   1420 -0.20025300  16.000000   ; qtot -0.000047
; residue   49 bbb rtp bbb q -0.0
 1421         n3     49    bbb     N1   1421 -0.59685800  14.010000   ; qtot -0.596905
 1422         c3     49    bbb     C1   1422 0.10137000  12.010000   ; qtot -0.495535
 1423         h1     49    bbb     H1   1423 0.04411300   1.008000   ; qtot -0.451422
 1424         h1     49    bbb     H2   1424 0.04411300   1.008000   ; qtot -0.407309
 1425         c3     49    bbb     C2   1425 0.10137000  12.010000   ; qtot -0.305939
 1426         h1     49    bbb     H3   1426 0.04411300   1.008000   ; qtot -0.261826
 1427         h1     49    bbb     H4   1427 0.04411300   1.008000   ; qtot -0.217713
 1428         c3     49    bbb     C3   1428 -0.00195300  12.010000   ; qtot -0.219666
 1429         h1     49    bbb     H5   1429 0.05064400   1.008000   ; qtot -0.169022
 1430         h1     49    bbb     H6   1430 0.05064400   1.008000   ; qtot -0.118378
 1431         c3     49    bbb     C4   1431 -0.01612100  12.010000   ; qtot -0.134499
 1432         hc     49    bbb     H7   1432 0.04936100   1.008000   ; qtot -0.085138
 1433         hc     49    bbb     H8   1433 0.04936100   1.008000   ; qtot -0.035777
 1434         c3     49    bbb     C5   1434 0.11363000  12.010000   ; qtot 0.077853
 1435         hc     49    bbb     H9   1435 0.06265900   1.008000   ; qtot 0.140512
 1436         hc     49    bbb    H10   1436 0.06265900   1.008000   ; qtot 0.203171
 1437         c3     49    bbb     C6   1437 0.11363000  12.010000   ; qtot 0.316801
 1438         hc     49    bbb    H11   1438 0.06265900   1.008000   ; qtot 0.379460
 1439         hc     49    bbb    H12   1439 0.06265900   1.008000   ; qtot 0.442119
 1440         c3     49    bbb     C7   1440 0.05858200  12.010000   ; qtot 0.500701
 1441         h1     49    bbb    H13   1441 0.06123400   1.008000   ; qtot 0.561935
 1442         h1     49    bbb    H14   1442 0.06123400   1.008000   ; qtot 0.623169
 1443         c3     49    bbb     C8   1443 -0.72423400  12.010000   ; qtot -0.101065
 1444         h1     49    bbb    H15   1444 0.25637600   1.008000   ; qtot 0.155311
 1445         h1     49    bbb    H16   1445 0.25637600   1.008000   ; qtot 0.411687
 1446         c3     49    bbb     C9   1446 -0.72423400  12.010000   ; qtot -0.312547
 1447         h1     49    bbb    H17   1447 0.25637600   1.008000   ; qtot -0.056171
 1448         h1     49    bbb    H18   1448 0.25637600   1.008000   ; qtot 0.200205
 1449         os     49    bbb     O1   1449 -0.20025300  16.000000   ; qtot -0.000048
; residue   50 bbb rtp bbb q -0.0
 1450         n3     50    bbb     N1   1450 -0.59685800  14.010000   ; qtot -0.596906
 1451         c3     50    bbb     C1   1451 0.10137000  12.010000   ; qtot -0.495536
 1452         h1     50    bbb     H1   1452 0.04411300   1.008000   ; qtot -0.451423
 1453         h1     50    bbb     H2   1453 0.04411300   1.008000   ; qtot -0.407310
 1454         c3     50    bbb     C2   1454 0.10137000  12.010000   ; qtot -0.305940
 1455         h1     50    bbb     H3   1455 0.04411300   1.008000   ; qtot -0.261827
 1456         h1     50    bbb     H4   1456 0.04411300   1.008000   ; qtot -0.217714
 1457         c3     50    bbb     C3   1457 -0.00195300  12.010000   ; qtot -0.219667
 1458         h1     50    bbb     H5   1458 0.05064400   1.008000   ; qtot -0.169023
 1459         h1     50    bbb     H6   1459 0.05064400   1.008000   ; qtot -0.118379
 1460         c3     50    bbb     C4   1460 -0.01612100  12.010000   ; qtot -0.134500
 1461         hc     50    bbb     H7   1461 0.04936100   1.008000   ; qtot -0.085139
 1462         hc     50    bbb     H8   1462 0.04936100   1.008000   ; qtot -0.035778
 1463         c3     50    bbb     C5   1463 0.11363000  12.010000   ; qtot 0.077852
 1464         hc     50    bbb     H9   1464 0.06265900   1.008000   ; qtot 0.140511
 1465         hc     50    bbb    H10   1465 0.06265900   1.008000   ; qtot 0.203170
 1466         c3     50    bbb     C6   1466 0.11363000  12.010000   ; qtot 0.316800
 1467         hc     50    bbb    H11   1467 0.06265900   1.008000   ; qtot 0.379459
 1468         hc     50    bbb    H12   1468 0.06265900   1.008000   ; qtot 0.442118
 1469         c3     50    bbb     C7   1469 0.05858200  12.010000   ; qtot 0.500700
 1470         h1     50    bbb    H13   1470 0.06123400   1.008000   ; qtot 0.561934
 1471         h1     50    bbb    H14   1471 0.06123400   1.008000   ; qtot 0.623168
 1472         c3     50    bbb     C8   1472 -0.72423400  12.010000   ; qtot -0.101066
 1473         h1     50    bbb    H15   1473 0.25637600   1.008000   ; qtot 0.155310
 1474         h1     50    bbb    H16   1474 0.25637600   1.008000   ; qtot 0.411686
 1475         c3     50    bbb     C9   1475 -0.72423400  12.010000   ; qtot -0.312548
 1476         h1     50    bbb    H17   1476 0.25637600   1.008000   ; qtot -0.056172
 1477         h1     50    bbb    H18   1477 0.25637600   1.008000   ; qtot 0.200204
 1478         os     50    bbb     O1   1478 -0.20025300  16.000000   ; qtot -0.000049
; residue   51 bbb rtp bbb q -0.0
 1479         n3     51    bbb     N1   1479 -0.59685800  14.010000   ; qtot -0.596907
 1480         c3     51    bbb     C1   1480 0.10137000  12.010000   ; qtot -0.495537
 1481         h1     51    bbb     H1   1481 0.04411300   1.008000   ; qtot -0.451424
 1482         h1     51    bbb     H2   1482 0.04411300   1.008000   ; qtot -0.407311
 1483         c3     51    bbb     C2   1483 0.10137000  12.010000   ; qtot -0.305941
 1484         h1     51    bbb     H3   1484 0.04411300   1.008000   ; qtot -0.261828
 1485         h1     51    bbb     H4   1485 0.04411300   1.008000   ; qtot -0.217715
 1486         c3     51    bbb     C3   1486 -0.00195300  12.010000   ; qtot -0.219668
 1487         h1     51    bbb     H5   1487 0.05064400   1.008000   ; qtot -0.169024
 1488         h1     51    bbb     H6   1488 0.05064400   1.008000   ; qtot -0.118380
 1489         c3     51    bbb     C4   1489 -0.01612100  12.010000   ; qtot -0.134501
 1490         hc     51    bbb     H7   1490 0.04936100   1.008000   ; qtot -0.085140
 1491         hc     51    bbb     H8   1491 0.04936100   1.008000   ; qtot -0.035779
 1492         c3     51    bbb     C5   1492 0.11363000  12.010000   ; qtot 0.077851
 1493         hc     51    bbb     H9   1493 0.06265900   1.008000   ; qtot 0.140510
 1494         hc     51    bbb    H10   1494 0.06265900   1.008000   ; qtot 0.203169
 1495         c3     51    bbb     C6   1495 0.11363000  12.010000   ; qtot 0.316799
 1496         hc     51    bbb    H11   1496 0.06265900   1.008000   ; qtot 0.379458
 1497         hc     51    bbb    H12   1497 0.06265900   1.008000   ; qtot 0.442117
 1498         c3     51    bbb     C7   1498 0.05858200  12.010000   ; qtot 0.500699
 1499         h1     51    bbb    H13   1499 0.06123400   1.008000   ; qtot 0.561933
 1500         h1     51    bbb    H14   1500 0.06123400   1.008000   ; qtot 0.623167
 1501         c3     51    bbb     C8   1501 -0.72423400  12.010000   ; qtot -0.101067
 1502         h1     51    bbb    H15   1502 0.25637600   1.008000   ; qtot 0.155309
 1503         h1     51    bbb    H16   1503 0.25637600   1.008000   ; qtot 0.411685
 1504         c3     51    bbb     C9   1504 -0.72423400  12.010000   ; qtot -0.312549
 1505         h1     51    bbb    H17   1505 0.25637600   1.008000   ; qtot -0.056173
 1506         h1     51    bbb    H18   1506 0.25637600   1.008000   ; qtot 0.200203
 1507         os     51    bbb     O1   1507 -0.20025300  16.000000   ; qtot -0.000050
; residue   52 bbb rtp bbb q -0.0
 1508         n3     52    bbb     N1   1508 -0.59685800  14.010000   ; qtot -0.596908
 1509         c3     52    bbb     C1   1509 0.10137000  12.010000   ; qtot -0.495538
 1510         h1     52    bbb     H1   1510 0.04411300   1.008000   ; qtot -0.451425
 1511         h1     52    bbb     H2   1511 0.04411300   1.008000   ; qtot -0.407312
 1512         c3     52    bbb     C2   1512 0.10137000  12.010000   ; qtot -0.305942
 1513         h1     52    bbb     H3   1513 0.04411300   1.008000   ; qtot -0.261829
 1514         h1     52    bbb     H4   1514 0.04411300   1.008000   ; qtot -0.217716
 1515         c3     52    bbb     C3   1515 -0.00195300  12.010000   ; qtot -0.219669
 1516         h1     52    bbb     H5   1516 0.05064400   1.008000   ; qtot -0.169025
 1517         h1     52    bbb     H6   1517 0.05064400   1.008000   ; qtot -0.118381
 1518         c3     52    bbb     C4   1518 -0.01612100  12.010000   ; qtot -0.134502
 1519         hc     52    bbb     H7   1519 0.04936100   1.008000   ; qtot -0.085141
 1520         hc     52    bbb     H8   1520 0.04936100   1.008000   ; qtot -0.035780
 1521         c3     52    bbb     C5   1521 0.11363000  12.010000   ; qtot 0.077850
 1522         hc     52    bbb     H9   1522 0.06265900   1.008000   ; qtot 0.140509
 1523         hc     52    bbb    H10   1523 0.06265900   1.008000   ; qtot 0.203168
 1524         c3     52    bbb     C6   1524 0.11363000  12.010000   ; qtot 0.316798
 1525         hc     52    bbb    H11   1525 0.06265900   1.008000   ; qtot 0.379457
 1526         hc     52    bbb    H12   1526 0.06265900   1.008000   ; qtot 0.442116
 1527         c3     52    bbb     C7   1527 0.05858200  12.010000   ; qtot 0.500698
 1528         h1     52    bbb    H13   1528 0.06123400   1.008000   ; qtot 0.561932
 1529         h1     52    bbb    H14   1529 0.06123400   1.008000   ; qtot 0.623166
 1530         c3     52    bbb     C8   1530 -0.72423400  12.010000   ; qtot -0.101068
 1531         h1     52    bbb    H15   1531 0.25637600   1.008000   ; qtot 0.155308
 1532         h1     52    bbb    H16   1532 0.25637600   1.008000   ; qtot 0.411684
 1533         c3     52    bbb     C9   1533 -0.72423400  12.010000   ; qtot -0.312550
 1534         h1     52    bbb    H17   1534 0.25637600   1.008000   ; qtot -0.056174
 1535         h1     52    bbb    H18   1535 0.25637600   1.008000   ; qtot 0.200202
 1536         os     52    bbb     O1   1536 -0.20025300  16.000000   ; qtot -0.000051
; residue   53 bbb rtp bbb q -0.0
 1537         n3     53    bbb     N1   1537 -0.59685800  14.010000   ; qtot -0.596909
 1538         c3     53    bbb     C1   1538 0.10137000  12.010000   ; qtot -0.495539
 1539         h1     53    bbb     H1   1539 0.04411300   1.008000   ; qtot -0.451426
 1540         h1     53    bbb     H2   1540 0.04411300   1.008000   ; qtot -0.407313
 1541         c3     53    bbb     C2   1541 0.10137000  12.010000   ; qtot -0.305943
 1542         h1     53    bbb     H3   1542 0.04411300   1.008000   ; qtot -0.261830
 1543         h1     53    bbb     H4   1543 0.04411300   1.008000   ; qtot -0.217717
 1544         c3     53    bbb     C3   1544 -0.00195300  12.010000   ; qtot -0.219670
 1545         h1     53    bbb     H5   1545 0.05064400   1.008000   ; qtot -0.169026
 1546         h1     53    bbb     H6   1546 0.05064400   1.008000   ; qtot -0.118382
 1547         c3     53    bbb     C4   1547 -0.01612100  12.010000   ; qtot -0.134503
 1548         hc     53    bbb     H7   1548 0.04936100   1.008000   ; qtot -0.085142
 1549         hc     53    bbb     H8   1549 0.04936100   1.008000   ; qtot -0.035781
 1550         c3     53    bbb     C5   1550 0.11363000  12.010000   ; qtot 0.077849
 1551         hc     53    bbb     H9   1551 0.06265900   1.008000   ; qtot 0.140508
 1552         hc     53    bbb    H10   1552 0.06265900   1.008000   ; qtot 0.203167
 1553         c3     53    bbb     C6   1553 0.11363000  12.010000   ; qtot 0.316797
 1554         hc     53    bbb    H11   1554 0.06265900   1.008000   ; qtot 0.379456
 1555         hc     53    bbb    H12   1555 0.06265900   1.008000   ; qtot 0.442115
 1556         c3     53    bbb     C7   1556 0.05858200  12.010000   ; qtot 0.500697
 1557         h1     53    bbb    H13   1557 0.06123400   1.008000   ; qtot 0.561931
 1558         h1     53    bbb    H14   1558 0.06123400   1.008000   ; qtot 0.623165
 1559         c3     53    bbb     C8   1559 -0.72423400  12.010000   ; qtot -0.101069
 1560         h1     53    bbb    H15   1560 0.25637600   1.008000   ; qtot 0.155307
 1561         h1     53    bbb    H16   1561 0.25637600   1.008000   ; qtot 0.411683
 1562         c3     53    bbb     C9   1562 -0.72423400  12.010000   ; qtot -0.312551
 1563         h1     53    bbb    H17   1563 0.25637600   1.008000   ; qtot -0.056175
 1564         h1     53    bbb    H18   1564 0.25637600   1.008000   ; qtot 0.200201
 1565         os     53    bbb     O1   1565 -0.20025300  16.000000   ; qtot -0.000052
; residue   54 bbb rtp bbb q -0.0
 1566         n3     54    bbb     N1   1566 -0.59685800  14.010000   ; qtot -0.596910
 1567         c3     54    bbb     C1   1567 0.10137000  12.010000   ; qtot -0.495540
 1568         h1     54    bbb     H1   1568 0.04411300   1.008000   ; qtot -0.451427
 1569         h1     54    bbb     H2   1569 0.04411300   1.008000   ; qtot -0.407314
 1570         c3     54    bbb     C2   1570 0.10137000  12.010000   ; qtot -0.305944
 1571         h1     54    bbb     H3   1571 0.04411300   1.008000   ; qtot -0.261831
 1572         h1     54    bbb     H4   1572 0.04411300   1.008000   ; qtot -0.217718
 1573         c3     54    bbb     C3   1573 -0.00195300  12.010000   ; qtot -0.219671
 1574         h1     54    bbb     H5   1574 0.05064400   1.008000   ; qtot -0.169027
 1575         h1     54    bbb     H6   1575 0.05064400   1.008000   ; qtot -0.118383
 1576         c3     54    bbb     C4   1576 -0.01612100  12.010000   ; qtot -0.134504
 1577         hc     54    bbb     H7   1577 0.04936100   1.008000   ; qtot -0.085143
 1578         hc     54    bbb     H8   1578 0.04936100   1.008000   ; qtot -0.035782
 1579         c3     54    bbb     C5   1579 0.11363000  12.010000   ; qtot 0.077848
 1580         hc     54    bbb     H9   1580 0.06265900   1.008000   ; qtot 0.140507
 1581         hc     54    bbb    H10   1581 0.06265900   1.008000   ; qtot 0.203166
 1582         c3     54    bbb     C6   1582 0.11363000  12.010000   ; qtot 0.316796
 1583         hc     54    bbb    H11   1583 0.06265900   1.008000   ; qtot 0.379455
 1584         hc     54    bbb    H12   1584 0.06265900   1.008000   ; qtot 0.442114
 1585         c3     54    bbb     C7   1585 0.05858200  12.010000   ; qtot 0.500696
 1586         h1     54    bbb    H13   1586 0.06123400   1.008000   ; qtot 0.561930
 1587         h1     54    bbb    H14   1587 0.06123400   1.008000   ; qtot 0.623164
 1588         c3     54    bbb     C8   1588 -0.72423400  12.010000   ; qtot -0.101070
 1589         h1     54    bbb    H15   1589 0.25637600   1.008000   ; qtot 0.155306
 1590         h1     54    bbb    H16   1590 0.25637600   1.008000   ; qtot 0.411682
 1591         c3     54    bbb     C9   1591 -0.72423400  12.010000   ; qtot -0.312552
 1592         h1     54    bbb    H17   1592 0.25637600   1.008000   ; qtot -0.056176
 1593         h1     54    bbb    H18   1593 0.25637600   1.008000   ; qtot 0.200200
 1594         os     54    bbb     O1   1594 -0.20025300  16.000000   ; qtot -0.000053
; residue   55 bbb rtp bbb q -0.0
 1595         n3     55    bbb     N1   1595 -0.59685800  14.010000   ; qtot -0.596911
 1596         c3     55    bbb     C1   1596 0.10137000  12.010000   ; qtot -0.495541
 1597         h1     55    bbb     H1   1597 0.04411300   1.008000   ; qtot -0.451428
 1598         h1     55    bbb     H2   1598 0.04411300   1.008000   ; qtot -0.407315
 1599         c3     55    bbb     C2   1599 0.10137000  12.010000   ; qtot -0.305945
 1600         h1     55    bbb     H3   1600 0.04411300   1.008000   ; qtot -0.261832
 1601         h1     55    bbb     H4   1601 0.04411300   1.008000   ; qtot -0.217719
 1602         c3     55    bbb     C3   1602 -0.00195300  12.010000   ; qtot -0.219672
 1603         h1     55    bbb     H5   1603 0.05064400   1.008000   ; qtot -0.169028
 1604         h1     55    bbb     H6   1604 0.05064400   1.008000   ; qtot -0.118384
 1605         c3     55    bbb     C4   1605 -0.01612100  12.010000   ; qtot -0.134505
 1606         hc     55    bbb     H7   1606 0.04936100   1.008000   ; qtot -0.085144
 1607         hc     55    bbb     H8   1607 0.04936100   1.008000   ; qtot -0.035783
 1608         c3     55    bbb     C5   1608 0.11363000  12.010000   ; qtot 0.077847
 1609         hc     55    bbb     H9   1609 0.06265900   1.008000   ; qtot 0.140506
 1610         hc     55    bbb    H10   1610 0.06265900   1.008000   ; qtot 0.203165
 1611         c3     55    bbb     C6   1611 0.11363000  12.010000   ; qtot 0.316795
 1612         hc     55    bbb    H11   1612 0.06265900   1.008000   ; qtot 0.379454
 1613         hc     55    bbb    H12   1613 0.06265900   1.008000   ; qtot 0.442113
 1614         c3     55    bbb     C7   1614 0.05858200  12.010000   ; qtot 0.500695
 1615         h1     55    bbb    H13   1615 0.06123400   1.008000   ; qtot 0.561929
 1616         h1     55    bbb    H14   1616 0.06123400   1.008000   ; qtot 0.623163
 1617         c3     55    bbb     C8   1617 -0.72423400  12.010000   ; qtot -0.101071
 1618         h1     55    bbb    H15   1618 0.25637600   1.008000   ; qtot 0.155305
 1619         h1     55    bbb    H16   1619 0.25637600   1.008000   ; qtot 0.411681
 1620         c3     55    bbb     C9   1620 -0.72423400  12.010000   ; qtot -0.312553
 1621         h1     55    bbb    H17   1621 0.25637600   1.008000   ; qtot -0.056177
 1622         h1     55    bbb    H18   1622 0.25637600   1.008000   ; qtot 0.200199
 1623         os     55    bbb     O1   1623 -0.20025300  16.000000   ; qtot -0.000054
; residue   56 bbb rtp bbb q -0.0
 1624         n3     56    bbb     N1   1624 -0.59685800  14.010000   ; qtot -0.596912
 1625         c3     56    bbb     C1   1625 0.10137000  12.010000   ; qtot -0.495542
 1626         h1     56    bbb     H1   1626 0.04411300   1.008000   ; qtot -0.451429
 1627         h1     56    bbb     H2   1627 0.04411300   1.008000   ; qtot -0.407316
 1628         c3     56    bbb     C2   1628 0.10137000  12.010000   ; qtot -0.305946
 1629         h1     56    bbb     H3   1629 0.04411300   1.008000   ; qtot -0.261833
 1630         h1     56    bbb     H4   1630 0.04411300   1.008000   ; qtot -0.217720
 1631         c3     56    bbb     C3   1631 -0.00195300  12.010000   ; qtot -0.219673
 1632         h1     56    bbb     H5   1632 0.05064400   1.008000   ; qtot -0.169029
 1633         h1     56    bbb     H6   1633 0.05064400   1.008000   ; qtot -0.118385
 1634         c3     56    bbb     C4   1634 -0.01612100  12.010000   ; qtot -0.134506
 1635         hc     56    bbb     H7   1635 0.04936100   1.008000   ; qtot -0.085145
 1636         hc     56    bbb     H8   1636 0.04936100   1.008000   ; qtot -0.035784
 1637         c3     56    bbb     C5   1637 0.11363000  12.010000   ; qtot 0.077846
 1638         hc     56    bbb     H9   1638 0.06265900   1.008000   ; qtot 0.140505
 1639         hc     56    bbb    H10   1639 0.06265900   1.008000   ; qtot 0.203164
 1640         c3     56    bbb     C6   1640 0.11363000  12.010000   ; qtot 0.316794
 1641         hc     56    bbb    H11   1641 0.06265900   1.008000   ; qtot 0.379453
 1642         hc     56    bbb    H12   1642 0.06265900   1.008000   ; qtot 0.442112
 1643         c3     56    bbb     C7   1643 0.05858200  12.010000   ; qtot 0.500694
 1644         h1     56    bbb    H13   1644 0.06123400   1.008000   ; qtot 0.561928
 1645         h1     56    bbb    H14   1645 0.06123400   1.008000   ; qtot 0.623162
 1646         c3     56    bbb     C8   1646 -0.72423400  12.010000   ; qtot -0.101072
 1647         h1     56    bbb    H15   1647 0.25637600   1.008000   ; qtot 0.155304
 1648         h1     56    bbb    H16   1648 0.25637600   1.008000   ; qtot 0.411680
 1649         c3     56    bbb     C9   1649 -0.72423400  12.010000   ; qtot -0.312554
 1650         h1     56    bbb    H17   1650 0.25637600   1.008000   ; qtot -0.056178
 1651         h1     56    bbb    H18   1651 0.25637600   1.008000   ; qtot 0.200198
 1652         os     56    bbb     O1   1652 -0.20025300  16.000000   ; qtot -0.000055
; residue   57 bbb rtp bbb q -0.0
 1653         n3     57    bbb     N1   1653 -0.59685800  14.010000   ; qtot -0.596913
 1654         c3     57    bbb     C1   1654 0.10137000  12.010000   ; qtot -0.495543
 1655         h1     57    bbb     H1   1655 0.04411300   1.008000   ; qtot -0.451430
 1656         h1     57    bbb     H2   1656 0.04411300   1.008000   ; qtot -0.407317
 1657         c3     57    bbb     C2   1657 0.10137000  12.010000   ; qtot -0.305947
 1658         h1     57    bbb     H3   1658 0.04411300   1.008000   ; qtot -0.261834
 1659         h1     57    bbb     H4   1659 0.04411300   1.008000   ; qtot -0.217721
 1660         c3     57    bbb     C3   1660 -0.00195300  12.010000   ; qtot -0.219674
 1661         h1     57    bbb     H5   1661 0.05064400   1.008000   ; qtot -0.169030
 1662         h1     57    bbb     H6   1662 0.05064400   1.008000   ; qtot -0.118386
 1663         c3     57    bbb     C4   1663 -0.01612100  12.010000   ; qtot -0.134507
 1664         hc     57    bbb     H7   1664 0.04936100   1.008000   ; qtot -0.085146
 1665         hc     57    bbb     H8   1665 0.04936100   1.008000   ; qtot -0.035785
 1666         c3     57    bbb     C5   1666 0.11363000  12.010000   ; qtot 0.077845
 1667         hc     57    bbb     H9   1667 0.06265900   1.008000   ; qtot 0.140504
 1668         hc     57    bbb    H10   1668 0.06265900   1.008000   ; qtot 0.203163
 1669         c3     57    bbb     C6   1669 0.11363000  12.010000   ; qtot 0.316793
 1670         hc     57    bbb    H11   1670 0.06265900   1.008000   ; qtot 0.379452
 1671         hc     57    bbb    H12   1671 0.06265900   1.008000   ; qtot 0.442111
 1672         c3     57    bbb     C7   1672 0.05858200  12.010000   ; qtot 0.500693
 1673         h1     57    bbb    H13   1673 0.06123400   1.008000   ; qtot 0.561927
 1674         h1     57    bbb    H14   1674 0.06123400   1.008000   ; qtot 0.623161
 1675         c3     57    bbb     C8   1675 -0.72423400  12.010000   ; qtot -0.101073
 1676         h1     57    bbb    H15   1676 0.25637600   1.008000   ; qtot 0.155303
 1677         h1     57    bbb    H16   1677 0.25637600   1.008000   ; qtot 0.411679
 1678         c3     57    bbb     C9   1678 -0.72423400  12.010000   ; qtot -0.312555
 1679         h1     57    bbb    H17   1679 0.25637600   1.008000   ; qtot -0.056179
 1680         h1     57    bbb    H18   1680 0.25637600   1.008000   ; qtot 0.200197
 1681         os     57    bbb     O1   1681 -0.20025300  16.000000   ; qtot -0.000056
; residue   58 bbb rtp bbb q -0.0
 1682         n3     58    bbb     N1   1682 -0.59685800  14.010000   ; qtot -0.596914
 1683         c3     58    bbb     C1   1683 0.10137000  12.010000   ; qtot -0.495544
 1684         h1     58    bbb     H1   1684 0.04411300   1.008000   ; qtot -0.451431
 1685         h1     58    bbb     H2   1685 0.04411300   1.008000   ; qtot -0.407318
 1686         c3     58    bbb     C2   1686 0.10137000  12.010000   ; qtot -0.305948
 1687         h1     58    bbb     H3   1687 0.04411300   1.008000   ; qtot -0.261835
 1688         h1     58    bbb     H4   1688 0.04411300   1.008000   ; qtot -0.217722
 1689         c3     58    bbb     C3   1689 -0.00195300  12.010000   ; qtot -0.219675
 1690         h1     58    bbb     H5   1690 0.05064400   1.008000   ; qtot -0.169031
 1691         h1     58    bbb     H6   1691 0.05064400   1.008000   ; qtot -0.118387
 1692         c3     58    bbb     C4   1692 -0.01612100  12.010000   ; qtot -0.134508
 1693         hc     58    bbb     H7   1693 0.04936100   1.008000   ; qtot -0.085147
 1694         hc     58    bbb     H8   1694 0.04936100   1.008000   ; qtot -0.035786
 1695         c3     58    bbb     C5   1695 0.11363000  12.010000   ; qtot 0.077844
 1696         hc     58    bbb     H9   1696 0.06265900   1.008000   ; qtot 0.140503
 1697         hc     58    bbb    H10   1697 0.06265900   1.008000   ; qtot 0.203162
 1698         c3     58    bbb     C6   1698 0.11363000  12.010000   ; qtot 0.316792
 1699         hc     58    bbb    H11   1699 0.06265900   1.008000   ; qtot 0.379451
 1700         hc     58    bbb    H12   1700 0.06265900   1.008000   ; qtot 0.442110
 1701         c3     58    bbb     C7   1701 0.05858200  12.010000   ; qtot 0.500692
 1702         h1     58    bbb    H13   1702 0.06123400   1.008000   ; qtot 0.561926
 1703         h1     58    bbb    H14   1703 0.06123400   1.008000   ; qtot 0.623160
 1704         c3     58    bbb     C8   1704 -0.72423400  12.010000   ; qtot -0.101074
 1705         h1     58    bbb    H15   1705 0.25637600   1.008000   ; qtot 0.155302
 1706         h1     58    bbb    H16   1706 0.25637600   1.008000   ; qtot 0.411678
 1707         c3     58    bbb     C9   1707 -0.72423400  12.010000   ; qtot -0.312556
 1708         h1     58    bbb    H17   1708 0.25637600   1.008000   ; qtot -0.056180
 1709         h1     58    bbb    H18   1709 0.25637600   1.008000   ; qtot 0.200196
 1710         os     58    bbb     O1   1710 -0.20025300  16.000000   ; qtot -0.000057
; residue   59 bbb rtp bbb q -0.0
 1711         n3     59    bbb     N1   1711 -0.59685800  14.010000   ; qtot -0.596915
 1712         c3     59    bbb     C1   1712 0.10137000  12.010000   ; qtot -0.495545
 1713         h1     59    bbb     H1   1713 0.04411300   1.008000   ; qtot -0.451432
 1714         h1     59    bbb     H2   1714 0.04411300   1.008000   ; qtot -0.407319
 1715         c3     59    bbb     C2   1715 0.10137000  12.010000   ; qtot -0.305949
 1716         h1     59    bbb     H3   1716 0.04411300   1.008000   ; qtot -0.261836
 1717         h1     59    bbb     H4   1717 0.04411300   1.008000   ; qtot -0.217723
 1718         c3     59    bbb     C3   1718 -0.00195300  12.010000   ; qtot -0.219676
 1719         h1     59    bbb     H5   1719 0.05064400   1.008000   ; qtot -0.169032
 1720         h1     59    bbb     H6   1720 0.05064400   1.008000   ; qtot -0.118388
 1721         c3     59    bbb     C4   1721 -0.01612100  12.010000   ; qtot -0.134509
 1722         hc     59    bbb     H7   1722 0.04936100   1.008000   ; qtot -0.085148
 1723         hc     59    bbb     H8   1723 0.04936100   1.008000   ; qtot -0.035787
 1724         c3     59    bbb     C5   1724 0.11363000  12.010000   ; qtot 0.077843
 1725         hc     59    bbb     H9   1725 0.06265900   1.008000   ; qtot 0.140502
 1726         hc     59    bbb    H10   1726 0.06265900   1.008000   ; qtot 0.203161
 1727         c3     59    bbb     C6   1727 0.11363000  12.010000   ; qtot 0.316791
 1728         hc     59    bbb    H11   1728 0.06265900   1.008000   ; qtot 0.379450
 1729         hc     59    bbb    H12   1729 0.06265900   1.008000   ; qtot 0.442109
 1730         c3     59    bbb     C7   1730 0.05858200  12.010000   ; qtot 0.500691
 1731         h1     59    bbb    H13   1731 0.06123400   1.008000   ; qtot 0.561925
 1732         h1     59    bbb    H14   1732 0.06123400   1.008000   ; qtot 0.623159
 1733         c3     59    bbb     C8   1733 -0.72423400  12.010000   ; qtot -0.101075
 1734         h1     59    bbb    H15   1734 0.25637600   1.008000   ; qtot 0.155301
 1735         h1     59    bbb    H16   1735 0.25637600   1.008000   ; qtot 0.411677
 1736         c3     59    bbb     C9   1736 -0.72423400  12.010000   ; qtot -0.312557
 1737         h1     59    bbb    H17   1737 0.25637600   1.008000   ; qtot -0.056181
 1738         h1     59    bbb    H18   1738 0.25637600   1.008000   ; qtot 0.200195
 1739         os     59    bbb     O1   1739 -0.20025300  16.000000   ; qtot -0.000058
; residue   60 bbb rtp bbb q -0.0
 1740         n3     60    bbb     N1   1740 -0.59685800  14.010000   ; qtot -0.596916
 1741         c3     60    bbb     C1   1741 0.10137000  12.010000   ; qtot -0.495546
 1742         h1     60    bbb     H1   1742 0.04411300   1.008000   ; qtot -0.451433
 1743         h1     60    bbb     H2   1743 0.04411300   1.008000   ; qtot -0.407320
 1744         c3     60    bbb     C2   1744 0.10137000  12.010000   ; qtot -0.305950
 1745         h1     60    bbb     H3   1745 0.04411300   1.008000   ; qtot -0.261837
 1746         h1     60    bbb     H4   1746 0.04411300   1.008000   ; qtot -0.217724
 1747         c3     60    bbb     C3   1747 -0.00195300  12.010000   ; qtot -0.219677
 1748         h1     60    bbb     H5   1748 0.05064400   1.008000   ; qtot -0.169033
 1749         h1     60    bbb     H6   1749 0.05064400   1.008000   ; qtot -0.118389
 1750         c3     60    bbb     C4   1750 -0.01612100  12.010000   ; qtot -0.134510
 1751         hc     60    bbb     H7   1751 0.04936100   1.008000   ; qtot -0.085149
 1752         hc     60    bbb     H8   1752 0.04936100   1.008000   ; qtot -0.035788
 1753         c3     60    bbb     C5   1753 0.11363000  12.010000   ; qtot 0.077842
 1754         hc     60    bbb     H9   1754 0.06265900   1.008000   ; qtot 0.140501
 1755         hc     60    bbb    H10   1755 0.06265900   1.008000   ; qtot 0.203160
 1756         c3     60    bbb     C6   1756 0.11363000  12.010000   ; qtot 0.316790
 1757         hc     60    bbb    H11   1757 0.06265900   1.008000   ; qtot 0.379449
 1758         hc     60    bbb    H12   1758 0.06265900   1.008000   ; qtot 0.442108
 1759         c3     60    bbb     C7   1759 0.05858200  12.010000   ; qtot 0.500690
 1760         h1     60    bbb    H13   1760 0.06123400   1.008000   ; qtot 0.561924
 1761         h1     60    bbb    H14   1761 0.06123400   1.008000   ; qtot 0.623158
 1762         c3     60    bbb     C8   1762 -0.72423400  12.010000   ; qtot -0.101076
 1763         h1     60    bbb    H15   1763 0.25637600   1.008000   ; qtot 0.155300
 1764         h1     60    bbb    H16   1764 0.25637600   1.008000   ; qtot 0.411676
 1765         c3     60    bbb     C9   1765 -0.72423400  12.010000   ; qtot -0.312558
 1766         h1     60    bbb    H17   1766 0.25637600   1.008000   ; qtot -0.056182
 1767         h1     60    bbb    H18   1767 0.25637600   1.008000   ; qtot 0.200194
 1768         os     60    bbb     O1   1768 -0.20025300  16.000000   ; qtot -0.000059
; residue   61 bbb rtp bbb q -0.0
 1769         n3     61    bbb     N1   1769 -0.59685800  14.010000   ; qtot -0.596917
 1770         c3     61    bbb     C1   1770 0.10137000  12.010000   ; qtot -0.495547
 1771         h1     61    bbb     H1   1771 0.04411300   1.008000   ; qtot -0.451434
 1772         h1     61    bbb     H2   1772 0.04411300   1.008000   ; qtot -0.407321
 1773         c3     61    bbb     C2   1773 0.10137000  12.010000   ; qtot -0.305951
 1774         h1     61    bbb     H3   1774 0.04411300   1.008000   ; qtot -0.261838
 1775         h1     61    bbb     H4   1775 0.04411300   1.008000   ; qtot -0.217725
 1776         c3     61    bbb     C3   1776 -0.00195300  12.010000   ; qtot -0.219678
 1777         h1     61    bbb     H5   1777 0.05064400   1.008000   ; qtot -0.169034
 1778         h1     61    bbb     H6   1778 0.05064400   1.008000   ; qtot -0.118390
 1779         c3     61    bbb     C4   1779 -0.01612100  12.010000   ; qtot -0.134511
 1780         hc     61    bbb     H7   1780 0.04936100   1.008000   ; qtot -0.085150
 1781         hc     61    bbb     H8   1781 0.04936100   1.008000   ; qtot -0.035789
 1782         c3     61    bbb     C5   1782 0.11363000  12.010000   ; qtot 0.077841
 1783         hc     61    bbb     H9   1783 0.06265900   1.008000   ; qtot 0.140500
 1784         hc     61    bbb    H10   1784 0.06265900   1.008000   ; qtot 0.203159
 1785         c3     61    bbb     C6   1785 0.11363000  12.010000   ; qtot 0.316789
 1786         hc     61    bbb    H11   1786 0.06265900   1.008000   ; qtot 0.379448
 1787         hc     61    bbb    H12   1787 0.06265900   1.008000   ; qtot 0.442107
 1788         c3     61    bbb     C7   1788 0.05858200  12.010000   ; qtot 0.500689
 1789         h1     61    bbb    H13   1789 0.06123400   1.008000   ; qtot 0.561923
 1790         h1     61    bbb    H14   1790 0.06123400   1.008000   ; qtot 0.623157
 1791         c3     61    bbb     C8   1791 -0.72423400  12.010000   ; qtot -0.101077
 1792         h1     61    bbb    H15   1792 0.25637600   1.008000   ; qtot 0.155299
 1793         h1     61    bbb    H16   1793 0.25637600   1.008000   ; qtot 0.411675
 1794         c3     61    bbb     C9   1794 -0.72423400  12.010000   ; qtot -0.312559
 1795         h1     61    bbb    H17   1795 0.25637600   1.008000   ; qtot -0.056183
 1796         h1     61    bbb    H18   1796 0.25637600   1.008000   ; qtot 0.200193
 1797         os     61    bbb     O1   1797 -0.20025300  16.000000   ; qtot -0.000060
; residue   62 ccc rtp ccc q 0.0
 1798         c3     62    ccc     C1   1798 0.50749700  12.010000   ; qtot 0.507437
 1799         h1     62    ccc     H1   1799 -0.02808400   1.008000   ; qtot 0.479353
 1800         h1     62    ccc     H2   1800 -0.02808400   1.008000   ; qtot 0.451269
 1801         c3     62    ccc     C2   1801 -0.15486000  12.010000   ; qtot 0.296409
 1802         hc     62    ccc     H3   1802 0.10266400   1.008000   ; qtot 0.399073
 1803         hc     62    ccc     H4   1803 0.10266400   1.008000   ; qtot 0.501737
 1804         c3     62    ccc     C3   1804 -0.15693500  12.010000   ; qtot 0.344802
 1805         h1     62    ccc     H5   1805 0.08499200   1.008000   ; qtot 0.429794
 1806         h1     62    ccc     H6   1806 0.08499200   1.008000   ; qtot 0.514786
 1807         n3     62    ccc     N1   1807 -0.29948700  14.010000   ; qtot 0.215299
 1808         c3     62    ccc     C4   1808 -0.01321200  12.010000   ; qtot 0.202087
 1809         h1     62    ccc     H7   1809 0.08172200   1.008000   ; qtot 0.283809
 1810         h1     62    ccc     H8   1810 0.08172200   1.008000   ; qtot 0.365531
 1811         c3     62    ccc     C5   1811 -0.22180000  12.010000   ; qtot 0.143731
 1812         hc     62    ccc     H9   1812 0.09671800   1.008000   ; qtot 0.240449
 1813         hc     62    ccc    H10   1813 0.09671800   1.008000   ; qtot 0.337167
 1814          c     62    ccc     C6   1814 0.526324  12.010000   ; qtot 1.333694
 1815          o     62    ccc     O1   1815 -0.39142825  16.000000   ; qtot 0.637188
 1816         oh     62    ccc     O2   1816 -0.56822625  16.000000   ; qtot -0.203623
 1817         ho     62    ccc    H11   1817 0.4186155   1.008000   ; qtot 0.322452
 1818         c3     62    ccc     C7   1818 -0.01321200  12.010000   ; qtot 0.309240
 1819         h1     62    ccc    H12   1819 0.08172200   1.008000   ; qtot 0.390962
 1820         h1     62    ccc    H13   1820 0.08172200   1.008000   ; qtot 0.472684
 1821         c3     62    ccc     C8   1821 -0.22180000  12.010000   ; qtot 0.250884
 1822         hc     62    ccc    H14   1822 0.09671800   1.008000   ; qtot 0.347602
 1823         hc     62    ccc    H15   1823 0.09671800   1.008000   ; qtot 0.444320
 1824          c     62    ccc     C9   1824 0.526324  12.010000   ; qtot 1.440847
 1825          o     62    ccc     O3   1825 -0.39142825  16.000000   ; qtot 0.744341
 1826         oh     62    ccc     O4   1826 -0.56822625  16.000000   ; qtot -0.096470
 1827         ho     62    ccc    H16   1827 0.4186155   1.008000   ; qtot 0.429605
 1828         os     62    ccc     O5   1828 -0.42966500  16.000000   ; qtot -0.000060
; residue   63 ccc rtp ccc q 0.0
 1829         c3     63    ccc     C1   1829 0.50749700  12.010000   ; qtot 0.507437
 1830         h1     63    ccc     H1   1830 -0.02808400   1.008000   ; qtot 0.479353
 1831         h1     63    ccc     H2   1831 -0.02808400   1.008000   ; qtot 0.451269
 1832         c3     63    ccc     C2   1832 -0.15486000  12.010000   ; qtot 0.296409
 1833         hc     63    ccc     H3   1833 0.10266400   1.008000   ; qtot 0.399073
 1834         hc     63    ccc     H4   1834 0.10266400   1.008000   ; qtot 0.501737
 1835         c3     63    ccc     C3   1835 -0.15693500  12.010000   ; qtot 0.344802
 1836         h1     63    ccc     H5   1836 0.08499200   1.008000   ; qtot 0.429794
 1837         h1     63    ccc     H6   1837 0.08499200   1.008000   ; qtot 0.514786
 1838         n3     63    ccc     N1   1838 -0.29948700  14.010000   ; qtot 0.215299
 1839         c3     63    ccc     C4   1839 -0.01321200  12.010000   ; qtot 0.202087
 1840         h1     63    ccc     H7   1840 0.08172200   1.008000   ; qtot 0.283809
 1841         h1     63    ccc     H8   1841 0.08172200   1.008000   ; qtot 0.365531
 1842         c3     63    ccc     C5   1842 -0.22180000  12.010000   ; qtot 0.143731
 1843         hc     63    ccc     H9   1843 0.09671800   1.008000   ; qtot 0.240449
 1844         hc     63    ccc    H10   1844 0.09671800   1.008000   ; qtot 0.337167
 1845          c     63    ccc     C6   1845 0.526324  12.010000   ; qtot 1.333694
 1846          o     63    ccc     O1   1846 -0.39142825  16.000000   ; qtot 0.637188
 1847         oh     63    ccc     O2   1847 -0.56822625  16.000000   ; qtot -0.203623
 1848         ho     63    ccc    H11   1848 0.4186155   1.008000   ; qtot 0.322452
 1849         c3     63    ccc     C7   1849 -0.01321200  12.010000   ; qtot 0.309240
 1850         h1     63    ccc    H12   1850 0.08172200   1.008000   ; qtot 0.390962
 1851         h1     63    ccc    H13   1851 0.08172200   1.008000   ; qtot 0.472684
 1852         c3     63    ccc     C8   1852 -0.22180000  12.010000   ; qtot 0.250884
 1853         hc     63    ccc    H14   1853 0.09671800   1.008000   ; qtot 0.347602
 1854         hc     63    ccc    H15   1854 0.09671800   1.008000   ; qtot 0.444320
 1855          c     63    ccc     C9   1855 0.526324  12.010000   ; qtot 1.440847
 1856          o     63    ccc     O3   1856 -0.39142825  16.000000   ; qtot 0.744341
 1857         oh     63    ccc     O4   1857 -0.56822625  16.000000   ; qtot -0.096470
 1858         ho     63    ccc    H16   1858 0.4186155   1.008000   ; qtot 0.429605
 1859         os     63    ccc     O5   1859 -0.42966500  16.000000   ; qtot -0.000060
; residue   64 ccc rtp ccc q 0.0
 1860         c3     64    ccc     C1   1860 0.50749700  12.010000   ; qtot 0.507437
 1861         h1     64    ccc     H1   1861 -0.02808400   1.008000   ; qtot 0.479353
 1862         h1     64    ccc     H2   1862 -0.02808400   1.008000   ; qtot 0.451269
 1863         c3     64    ccc     C2   1863 -0.15486000  12.010000   ; qtot 0.296409
 1864         hc     64    ccc     H3   1864 0.10266400   1.008000   ; qtot 0.399073
 1865         hc     64    ccc     H4   1865 0.10266400   1.008000   ; qtot 0.501737
 1866         c3     64    ccc     C3   1866 -0.15693500  12.010000   ; qtot 0.344802
 1867         h1     64    ccc     H5   1867 0.08499200   1.008000   ; qtot 0.429794
 1868         h1     64    ccc     H6   1868 0.08499200   1.008000   ; qtot 0.514786
 1869         n3     64    ccc     N1   1869 -0.29948700  14.010000   ; qtot 0.215299
 1870         c3     64    ccc     C4   1870 -0.01321200  12.010000   ; qtot 0.202087
 1871         h1     64    ccc     H7   1871 0.08172200   1.008000   ; qtot 0.283809
 1872         h1     64    ccc     H8   1872 0.08172200   1.008000   ; qtot 0.365531
 1873         c3     64    ccc     C5   1873 -0.22180000  12.010000   ; qtot 0.143731
 1874         hc     64    ccc     H9   1874 0.09671800   1.008000   ; qtot 0.240449
 1875         hc     64    ccc    H10   1875 0.09671800   1.008000   ; qtot 0.337167
 1876          c     64    ccc     C6   1876 0.526324  12.010000   ; qtot 1.333694
 1877          o     64    ccc     O1   1877 -0.39142825  16.000000   ; qtot 0.637188
 1878         oh     64    ccc     O2   1878 -0.56822625  16.000000   ; qtot -0.203623
 1879         ho     64    ccc    H11   1879 0.4186155   1.008000   ; qtot 0.322452
 1880         c3     64    ccc     C7   1880 -0.01321200  12.010000   ; qtot 0.309240
 1881         h1     64    ccc    H12   1881 0.08172200   1.008000   ; qtot 0.390962
 1882         h1     64    ccc    H13   1882 0.08172200   1.008000   ; qtot 0.472684
 1883         c3     64    ccc     C8   1883 -0.22180000  12.010000   ; qtot 0.250884
 1884         hc     64    ccc    H14   1884 0.09671800   1.008000   ; qtot 0.347602
 1885         hc     64    ccc    H15   1885 0.09671800   1.008000   ; qtot 0.444320
 1886          c     64    ccc     C9   1886 0.526324  12.010000   ; qtot 1.440847
 1887          o     64    ccc     O3   1887 -0.39142825  16.000000   ; qtot 0.744341
 1888         oh     64    ccc     O4   1888 -0.56822625  16.000000   ; qtot -0.096470
 1889         ho     64    ccc    H16   1889 0.4186155   1.008000   ; qtot 0.429605
 1890         os     64    ccc     O5   1890 -0.42966500  16.000000   ; qtot -0.000060
; residue   65 ccc rtp ccc q 0.0
 1891         c3     65    ccc     C1   1891 0.50749700  12.010000   ; qtot 0.507437
 1892         h1     65    ccc     H1   1892 -0.02808400   1.008000   ; qtot 0.479353
 1893         h1     65    ccc     H2   1893 -0.02808400   1.008000   ; qtot 0.451269
 1894         c3     65    ccc     C2   1894 -0.15486000  12.010000   ; qtot 0.296409
 1895         hc     65    ccc     H3   1895 0.10266400   1.008000   ; qtot 0.399073
 1896         hc     65    ccc     H4   1896 0.10266400   1.008000   ; qtot 0.501737
 1897         c3     65    ccc     C3   1897 -0.15693500  12.010000   ; qtot 0.344802
 1898         h1     65    ccc     H5   1898 0.08499200   1.008000   ; qtot 0.429794
 1899         h1     65    ccc     H6   1899 0.08499200   1.008000   ; qtot 0.514786
 1900         n3     65    ccc     N1   1900 -0.29948700  14.010000   ; qtot 0.215299
 1901         c3     65    ccc     C4   1901 -0.01321200  12.010000   ; qtot 0.202087
 1902         h1     65    ccc     H7   1902 0.08172200   1.008000   ; qtot 0.283809
 1903         h1     65    ccc     H8   1903 0.08172200   1.008000   ; qtot 0.365531
 1904         c3     65    ccc     C5   1904 -0.22180000  12.010000   ; qtot 0.143731
 1905         hc     65    ccc     H9   1905 0.09671800   1.008000   ; qtot 0.240449
 1906         hc     65    ccc    H10   1906 0.09671800   1.008000   ; qtot 0.337167
 1907          c     65    ccc     C6   1907 0.526324  12.010000   ; qtot 1.333694
 1908          o     65    ccc     O1   1908 -0.39142825  16.000000   ; qtot 0.637188
 1909         oh     65    ccc     O2   1909 -0.56822625  16.000000   ; qtot -0.203623
 1910         ho     65    ccc    H11   1910 0.4186155   1.008000   ; qtot 0.322452
 1911         c3     65    ccc     C7   1911 -0.01321200  12.010000   ; qtot 0.309240
 1912         h1     65    ccc    H12   1912 0.08172200   1.008000   ; qtot 0.390962
 1913         h1     65    ccc    H13   1913 0.08172200   1.008000   ; qtot 0.472684
 1914         c3     65    ccc     C8   1914 -0.22180000  12.010000   ; qtot 0.250884
 1915         hc     65    ccc    H14   1915 0.09671800   1.008000   ; qtot 0.347602
 1916         hc     65    ccc    H15   1916 0.09671800   1.008000   ; qtot 0.444320
 1917          c     65    ccc     C9   1917 0.526324  12.010000   ; qtot 1.440847
 1918          o     65    ccc     O3   1918 -0.39142825  16.000000   ; qtot 0.744341
 1919         oh     65    ccc     O4   1919 -0.56822625  16.000000   ; qtot -0.096470
 1920         ho     65    ccc    H16   1920 0.4186155   1.008000   ; qtot 0.429605
 1921         os     65    ccc     O5   1921 -0.42966500  16.000000   ; qtot -0.000060
; residue   66 ccc rtp ccc q 0.0
 1922         c3     66    ccc     C1   1922 0.50749700  12.010000   ; qtot 0.507437
 1923         h1     66    ccc     H1   1923 -0.02808400   1.008000   ; qtot 0.479353
 1924         h1     66    ccc     H2   1924 -0.02808400   1.008000   ; qtot 0.451269
 1925         c3     66    ccc     C2   1925 -0.15486000  12.010000   ; qtot 0.296409
 1926         hc     66    ccc     H3   1926 0.10266400   1.008000   ; qtot 0.399073
 1927         hc     66    ccc     H4   1927 0.10266400   1.008000   ; qtot 0.501737
 1928         c3     66    ccc     C3   1928 -0.15693500  12.010000   ; qtot 0.344802
 1929         h1     66    ccc     H5   1929 0.08499200   1.008000   ; qtot 0.429794
 1930         h1     66    ccc     H6   1930 0.08499200   1.008000   ; qtot 0.514786
 1931         n3     66    ccc     N1   1931 -0.29948700  14.010000   ; qtot 0.215299
 1932         c3     66    ccc     C4   1932 -0.01321200  12.010000   ; qtot 0.202087
 1933         h1     66    ccc     H7   1933 0.08172200   1.008000   ; qtot 0.283809
 1934         h1     66    ccc     H8   1934 0.08172200   1.008000   ; qtot 0.365531
 1935         c3     66    ccc     C5   1935 -0.22180000  12.010000   ; qtot 0.143731
 1936         hc     66    ccc     H9   1936 0.09671800   1.008000   ; qtot 0.240449
 1937         hc     66    ccc    H10   1937 0.09671800   1.008000   ; qtot 0.337167
 1938          c     66    ccc     C6   1938 0.526324  12.010000   ; qtot 1.333694
 1939          o     66    ccc     O1   1939 -0.39142825  16.000000   ; qtot 0.637188
 1940         oh     66    ccc     O2   1940 -0.56822625  16.000000   ; qtot -0.203623
 1941         ho     66    ccc    H11   1941 0.4186155   1.008000   ; qtot 0.322452
 1942         c3     66    ccc     C7   1942 -0.01321200  12.010000   ; qtot 0.309240
 1943         h1     66    ccc    H12   1943 0.08172200   1.008000   ; qtot 0.390962
 1944         h1     66    ccc    H13   1944 0.08172200   1.008000   ; qtot 0.472684
 1945         c3     66    ccc     C8   1945 -0.22180000  12.010000   ; qtot 0.250884
 1946         hc     66    ccc    H14   1946 0.09671800   1.008000   ; qtot 0.347602
 1947         hc     66    ccc    H15   1947 0.09671800   1.008000   ; qtot 0.444320
 1948          c     66    ccc     C9   1948 0.526324  12.010000   ; qtot 1.440847
 1949          o     66    ccc     O3   1949 -0.39142825  16.000000   ; qtot 0.744341
 1950         oh     66    ccc     O4   1950 -0.56822625  16.000000   ; qtot -0.096470
 1951         ho     66    ccc    H16   1951 0.4186155   1.008000   ; qtot 0.429605
 1952         os     66    ccc     O5   1952 -0.42966500  16.000000   ; qtot -0.000060
; residue   67 ccc rtp ccc q 0.0
 1953         c3     67    ccc     C1   1953 0.50749700  12.010000   ; qtot 0.507437
 1954         h1     67    ccc     H1   1954 -0.02808400   1.008000   ; qtot 0.479353
 1955         h1     67    ccc     H2   1955 -0.02808400   1.008000   ; qtot 0.451269
 1956         c3     67    ccc     C2   1956 -0.15486000  12.010000   ; qtot 0.296409
 1957         hc     67    ccc     H3   1957 0.10266400   1.008000   ; qtot 0.399073
 1958         hc     67    ccc     H4   1958 0.10266400   1.008000   ; qtot 0.501737
 1959         c3     67    ccc     C3   1959 -0.15693500  12.010000   ; qtot 0.344802
 1960         h1     67    ccc     H5   1960 0.08499200   1.008000   ; qtot 0.429794
 1961         h1     67    ccc     H6   1961 0.08499200   1.008000   ; qtot 0.514786
 1962         n3     67    ccc     N1   1962 -0.29948700  14.010000   ; qtot 0.215299
 1963         c3     67    ccc     C4   1963 -0.01321200  12.010000   ; qtot 0.202087
 1964         h1     67    ccc     H7   1964 0.08172200   1.008000   ; qtot 0.283809
 1965         h1     67    ccc     H8   1965 0.08172200   1.008000   ; qtot 0.365531
 1966         c3     67    ccc     C5   1966 -0.22180000  12.010000   ; qtot 0.143731
 1967         hc     67    ccc     H9   1967 0.09671800   1.008000   ; qtot 0.240449
 1968         hc     67    ccc    H10   1968 0.09671800   1.008000   ; qtot 0.337167
 1969          c     67    ccc     C6   1969 0.526324  12.010000   ; qtot 1.333694
 1970          o     67    ccc     O1   1970 -0.39142825  16.000000   ; qtot 0.637188
 1971         oh     67    ccc     O2   1971 -0.56822625  16.000000   ; qtot -0.203623
 1972         ho     67    ccc    H11   1972 0.4186155   1.008000   ; qtot 0.322452
 1973         c3     67    ccc     C7   1973 -0.01321200  12.010000   ; qtot 0.309240
 1974         h1     67    ccc    H12   1974 0.08172200   1.008000   ; qtot 0.390962
 1975         h1     67    ccc    H13   1975 0.08172200   1.008000   ; qtot 0.472684
 1976         c3     67    ccc     C8   1976 -0.22180000  12.010000   ; qtot 0.250884
 1977         hc     67    ccc    H14   1977 0.09671800   1.008000   ; qtot 0.347602
 1978         hc     67    ccc    H15   1978 0.09671800   1.008000   ; qtot 0.444320
 1979          c     67    ccc     C9   1979 0.526324  12.010000   ; qtot 1.440847
 1980          o     67    ccc     O3   1980 -0.39142825  16.000000   ; qtot 0.744341
 1981         oh     67    ccc     O4   1981 -0.56822625  16.000000   ; qtot -0.096470
 1982         ho     67    ccc    H16   1982 0.4186155   1.008000   ; qtot 0.429605
 1983         os     67    ccc     O5   1983 -0.42966500  16.000000   ; qtot -0.000060
; residue   68 ccc rtp ccc q 0.0
 1984         c3     68    ccc     C1   1984 0.50749700  12.010000   ; qtot 0.507437
 1985         h1     68    ccc     H1   1985 -0.02808400   1.008000   ; qtot 0.479353
 1986         h1     68    ccc     H2   1986 -0.02808400   1.008000   ; qtot 0.451269
 1987         c3     68    ccc     C2   1987 -0.15486000  12.010000   ; qtot 0.296409
 1988         hc     68    ccc     H3   1988 0.10266400   1.008000   ; qtot 0.399073
 1989         hc     68    ccc     H4   1989 0.10266400   1.008000   ; qtot 0.501737
 1990         c3     68    ccc     C3   1990 -0.15693500  12.010000   ; qtot 0.344802
 1991         h1     68    ccc     H5   1991 0.08499200   1.008000   ; qtot 0.429794
 1992         h1     68    ccc     H6   1992 0.08499200   1.008000   ; qtot 0.514786
 1993         n3     68    ccc     N1   1993 -0.29948700  14.010000   ; qtot 0.215299
 1994         c3     68    ccc     C4   1994 -0.01321200  12.010000   ; qtot 0.202087
 1995         h1     68    ccc     H7   1995 0.08172200   1.008000   ; qtot 0.283809
 1996         h1     68    ccc     H8   1996 0.08172200   1.008000   ; qtot 0.365531
 1997         c3     68    ccc     C5   1997 -0.22180000  12.010000   ; qtot 0.143731
 1998         hc     68    ccc     H9   1998 0.09671800   1.008000   ; qtot 0.240449
 1999         hc     68    ccc    H10   1999 0.09671800   1.008000   ; qtot 0.337167
 2000          c     68    ccc     C6   2000 0.526324  12.010000   ; qtot 1.333694
 2001          o     68    ccc     O1   2001 -0.39142825  16.000000   ; qtot 0.637188
 2002         oh     68    ccc     O2   2002 -0.56822625  16.000000   ; qtot -0.203623
 2003         ho     68    ccc    H11   2003 0.4186155   1.008000   ; qtot 0.322452
 2004         c3     68    ccc     C7   2004 -0.01321200  12.010000   ; qtot 0.309240
 2005         h1     68    ccc    H12   2005 0.08172200   1.008000   ; qtot 0.390962
 2006         h1     68    ccc    H13   2006 0.08172200   1.008000   ; qtot 0.472684
 2007         c3     68    ccc     C8   2007 -0.22180000  12.010000   ; qtot 0.250884
 2008         hc     68    ccc    H14   2008 0.09671800   1.008000   ; qtot 0.347602
 2009         hc     68    ccc    H15   2009 0.09671800   1.008000   ; qtot 0.444320
 2010          c     68    ccc     C9   2010 0.526324  12.010000   ; qtot 1.440847
 2011          o     68    ccc     O3   2011 -0.39142825  16.000000   ; qtot 0.744341
 2012         oh     68    ccc     O4   2012 -0.56822625  16.000000   ; qtot -0.096470
 2013         ho     68    ccc    H16   2013 0.4186155   1.008000   ; qtot 0.429605
 2014         os     68    ccc     O5   2014 -0.42966500  16.000000   ; qtot -0.000060
; residue   69 ccc rtp ccc q 0.0
 2015         c3     69    ccc     C1   2015 0.50749700  12.010000   ; qtot 0.507437
 2016         h1     69    ccc     H1   2016 -0.02808400   1.008000   ; qtot 0.479353
 2017         h1     69    ccc     H2   2017 -0.02808400   1.008000   ; qtot 0.451269
 2018         c3     69    ccc     C2   2018 -0.15486000  12.010000   ; qtot 0.296409
 2019         hc     69    ccc     H3   2019 0.10266400   1.008000   ; qtot 0.399073
 2020         hc     69    ccc     H4   2020 0.10266400   1.008000   ; qtot 0.501737
 2021         c3     69    ccc     C3   2021 -0.15693500  12.010000   ; qtot 0.344802
 2022         h1     69    ccc     H5   2022 0.08499200   1.008000   ; qtot 0.429794
 2023         h1     69    ccc     H6   2023 0.08499200   1.008000   ; qtot 0.514786
 2024         n3     69    ccc     N1   2024 -0.29948700  14.010000   ; qtot 0.215299
 2025         c3     69    ccc     C4   2025 -0.01321200  12.010000   ; qtot 0.202087
 2026         h1     69    ccc     H7   2026 0.08172200   1.008000   ; qtot 0.283809
 2027         h1     69    ccc     H8   2027 0.08172200   1.008000   ; qtot 0.365531
 2028         c3     69    ccc     C5   2028 -0.22180000  12.010000   ; qtot 0.143731
 2029         hc     69    ccc     H9   2029 0.09671800   1.008000   ; qtot 0.240449
 2030         hc     69    ccc    H10   2030 0.09671800   1.008000   ; qtot 0.337167
 2031          c     69    ccc     C6   2031 0.526324  12.010000   ; qtot 1.333694
 2032          o     69    ccc     O1   2032 -0.39142825  16.000000   ; qtot 0.637188
 2033         oh     69    ccc     O2   2033 -0.56822625  16.000000   ; qtot -0.203623
 2034         ho     69    ccc    H11   2034 0.4186155   1.008000   ; qtot 0.322452
 2035         c3     69    ccc     C7   2035 -0.01321200  12.010000   ; qtot 0.309240
 2036         h1     69    ccc    H12   2036 0.08172200   1.008000   ; qtot 0.390962
 2037         h1     69    ccc    H13   2037 0.08172200   1.008000   ; qtot 0.472684
 2038         c3     69    ccc     C8   2038 -0.22180000  12.010000   ; qtot 0.250884
 2039         hc     69    ccc    H14   2039 0.09671800   1.008000   ; qtot 0.347602
 2040         hc     69    ccc    H15   2040 0.09671800   1.008000   ; qtot 0.444320
 2041          c     69    ccc     C9   2041 0.526324  12.010000   ; qtot 1.440847
 2042          o     69    ccc     O3   2042 -0.39142825  16.000000   ; qtot 0.744341
 2043         oh     69    ccc     O4   2043 -0.56822625  16.000000   ; qtot -0.096470
 2044         ho     69    ccc    H16   2044 0.4186155   1.008000   ; qtot 0.429605
 2045         os     69    ccc     O5   2045 -0.42966500  16.000000   ; qtot -0.000060
; residue   70 ccc rtp ccc q 0.0
 2046         c3     70    ccc     C1   2046 0.50749700  12.010000   ; qtot 0.507437
 2047         h1     70    ccc     H1   2047 -0.02808400   1.008000   ; qtot 0.479353
 2048         h1     70    ccc     H2   2048 -0.02808400   1.008000   ; qtot 0.451269
 2049         c3     70    ccc     C2   2049 -0.15486000  12.010000   ; qtot 0.296409
 2050         hc     70    ccc     H3   2050 0.10266400   1.008000   ; qtot 0.399073
 2051         hc     70    ccc     H4   2051 0.10266400   1.008000   ; qtot 0.501737
 2052         c3     70    ccc     C3   2052 -0.15693500  12.010000   ; qtot 0.344802
 2053         h1     70    ccc     H5   2053 0.08499200   1.008000   ; qtot 0.429794
 2054         h1     70    ccc     H6   2054 0.08499200   1.008000   ; qtot 0.514786
 2055         n3     70    ccc     N1   2055 -0.29948700  14.010000   ; qtot 0.215299
 2056         c3     70    ccc     C4   2056 -0.01321200  12.010000   ; qtot 0.202087
 2057         h1     70    ccc     H7   2057 0.08172200   1.008000   ; qtot 0.283809
 2058         h1     70    ccc     H8   2058 0.08172200   1.008000   ; qtot 0.365531
 2059         c3     70    ccc     C5   2059 -0.22180000  12.010000   ; qtot 0.143731
 2060         hc     70    ccc     H9   2060 0.09671800   1.008000   ; qtot 0.240449
 2061         hc     70    ccc    H10   2061 0.09671800   1.008000   ; qtot 0.337167
 2062          c     70    ccc     C6   2062 0.526324  12.010000   ; qtot 1.333694
 2063          o     70    ccc     O1   2063 -0.39142825  16.000000   ; qtot 0.637188
 2064         oh     70    ccc     O2   2064 -0.56822625  16.000000   ; qtot -0.203623
 2065         ho     70    ccc    H11   2065 0.4186155   1.008000   ; qtot 0.322452
 2066         c3     70    ccc     C7   2066 -0.01321200  12.010000   ; qtot 0.309240
 2067         h1     70    ccc    H12   2067 0.08172200   1.008000   ; qtot 0.390962
 2068         h1     70    ccc    H13   2068 0.08172200   1.008000   ; qtot 0.472684
 2069         c3     70    ccc     C8   2069 -0.22180000  12.010000   ; qtot 0.250884
 2070         hc     70    ccc    H14   2070 0.09671800   1.008000   ; qtot 0.347602
 2071         hc     70    ccc    H15   2071 0.09671800   1.008000   ; qtot 0.444320
 2072          c     70    ccc     C9   2072 0.526324  12.010000   ; qtot 1.440847
 2073          o     70    ccc     O3   2073 -0.39142825  16.000000   ; qtot 0.744341
 2074         oh     70    ccc     O4   2074 -0.56822625  16.000000   ; qtot -0.096470
 2075         ho     70    ccc    H16   2075 0.4186155   1.008000   ; qtot 0.429605
 2076         os     70    ccc     O5   2076 -0.42966500  16.000000   ; qtot -0.000060
; residue   71 ccc rtp ccc q 0.0
 2077         c3     71    ccc     C1   2077 0.50749700  12.010000   ; qtot 0.507437
 2078         h1     71    ccc     H1   2078 -0.02808400   1.008000   ; qtot 0.479353
 2079         h1     71    ccc     H2   2079 -0.02808400   1.008000   ; qtot 0.451269
 2080         c3     71    ccc     C2   2080 -0.15486000  12.010000   ; qtot 0.296409
 2081         hc     71    ccc     H3   2081 0.10266400   1.008000   ; qtot 0.399073
 2082         hc     71    ccc     H4   2082 0.10266400   1.008000   ; qtot 0.501737
 2083         c3     71    ccc     C3   2083 -0.15693500  12.010000   ; qtot 0.344802
 2084         h1     71    ccc     H5   2084 0.08499200   1.008000   ; qtot 0.429794
 2085         h1     71    ccc     H6   2085 0.08499200   1.008000   ; qtot 0.514786
 2086         n3     71    ccc     N1   2086 -0.29948700  14.010000   ; qtot 0.215299
 2087         c3     71    ccc     C4   2087 -0.01321200  12.010000   ; qtot 0.202087
 2088         h1     71    ccc     H7   2088 0.08172200   1.008000   ; qtot 0.283809
 2089         h1     71    ccc     H8   2089 0.08172200   1.008000   ; qtot 0.365531
 2090         c3     71    ccc     C5   2090 -0.22180000  12.010000   ; qtot 0.143731
 2091         hc     71    ccc     H9   2091 0.09671800   1.008000   ; qtot 0.240449
 2092         hc     71    ccc    H10   2092 0.09671800   1.008000   ; qtot 0.337167
 2093          c     71    ccc     C6   2093 0.526324  12.010000   ; qtot 1.333694
 2094          o     71    ccc     O1   2094 -0.39142825  16.000000   ; qtot 0.637188
 2095         oh     71    ccc     O2   2095 -0.56822625  16.000000   ; qtot -0.203623
 2096         ho     71    ccc    H11   2096 0.4186155   1.008000   ; qtot 0.322452
 2097         c3     71    ccc     C7   2097 -0.01321200  12.010000   ; qtot 0.309240
 2098         h1     71    ccc    H12   2098 0.08172200   1.008000   ; qtot 0.390962
 2099         h1     71    ccc    H13   2099 0.08172200   1.008000   ; qtot 0.472684
 2100         c3     71    ccc     C8   2100 -0.22180000  12.010000   ; qtot 0.250884
 2101         hc     71    ccc    H14   2101 0.09671800   1.008000   ; qtot 0.347602
 2102         hc     71    ccc    H15   2102 0.09671800   1.008000   ; qtot 0.444320
 2103          c     71    ccc     C9   2103 0.526324  12.010000   ; qtot 1.440847
 2104          o     71    ccc     O3   2104 -0.39142825  16.000000   ; qtot 0.744341
 2105         oh     71    ccc     O4   2105 -0.56822625  16.000000   ; qtot -0.096470
 2106         ho     71    ccc    H16   2106 0.4186155   1.008000   ; qtot 0.429605
 2107         os     71    ccc     O5   2107 -0.42966500  16.000000   ; qtot -0.000060
; residue   72 ccc rtp ccc q 0.0
 2108         c3     72    ccc     C1   2108 0.50749700  12.010000   ; qtot 0.507437
 2109         h1     72    ccc     H1   2109 -0.02808400   1.008000   ; qtot 0.479353
 2110         h1     72    ccc     H2   2110 -0.02808400   1.008000   ; qtot 0.451269
 2111         c3     72    ccc     C2   2111 -0.15486000  12.010000   ; qtot 0.296409
 2112         hc     72    ccc     H3   2112 0.10266400   1.008000   ; qtot 0.399073
 2113         hc     72    ccc     H4   2113 0.10266400   1.008000   ; qtot 0.501737
 2114         c3     72    ccc     C3   2114 -0.15693500  12.010000   ; qtot 0.344802
 2115         h1     72    ccc     H5   2115 0.08499200   1.008000   ; qtot 0.429794
 2116         h1     72    ccc     H6   2116 0.08499200   1.008000   ; qtot 0.514786
 2117         n3     72    ccc     N1   2117 -0.29948700  14.010000   ; qtot 0.215299
 2118         c3     72    ccc     C4   2118 -0.01321200  12.010000   ; qtot 0.202087
 2119         h1     72    ccc     H7   2119 0.08172200   1.008000   ; qtot 0.283809
 2120         h1     72    ccc     H8   2120 0.08172200   1.008000   ; qtot 0.365531
 2121         c3     72    ccc     C5   2121 -0.22180000  12.010000   ; qtot 0.143731
 2122         hc     72    ccc     H9   2122 0.09671800   1.008000   ; qtot 0.240449
 2123         hc     72    ccc    H10   2123 0.09671800   1.008000   ; qtot 0.337167
 2124          c     72    ccc     C6   2124 0.526324  12.010000   ; qtot 1.333694
 2125          o     72    ccc     O1   2125 -0.39142825  16.000000   ; qtot 0.637188
 2126         oh     72    ccc     O2   2126 -0.56822625  16.000000   ; qtot -0.203623
 2127         ho     72    ccc    H11   2127 0.4186155   1.008000   ; qtot 0.322452
 2128         c3     72    ccc     C7   2128 -0.01321200  12.010000   ; qtot 0.309240
 2129         h1     72    ccc    H12   2129 0.08172200   1.008000   ; qtot 0.390962
 2130         h1     72    ccc    H13   2130 0.08172200   1.008000   ; qtot 0.472684
 2131         c3     72    ccc     C8   2131 -0.22180000  12.010000   ; qtot 0.250884
 2132         hc     72    ccc    H14   2132 0.09671800   1.008000   ; qtot 0.347602
 2133         hc     72    ccc    H15   2133 0.09671800   1.008000   ; qtot 0.444320
 2134          c     72    ccc     C9   2134 0.526324  12.010000   ; qtot 1.440847
 2135          o     72    ccc     O3   2135 -0.39142825  16.000000   ; qtot 0.744341
 2136         oh     72    ccc     O4   2136 -0.56822625  16.000000   ; qtot -0.096470
 2137         ho     72    ccc    H16   2137 0.4186155   1.008000   ; qtot 0.429605
 2138         os     72    ccc     O5   2138 -0.42966500  16.000000   ; qtot -0.000060
; residue   73 ccc rtp ccc q 0.0
 2139         c3     73    ccc     C1   2139 0.50749700  12.010000   ; qtot 0.507437
 2140         h1     73    ccc     H1   2140 -0.02808400   1.008000   ; qtot 0.479353
 2141         h1     73    ccc     H2   2141 -0.02808400   1.008000   ; qtot 0.451269
 2142         c3     73    ccc     C2   2142 -0.15486000  12.010000   ; qtot 0.296409
 2143         hc     73    ccc     H3   2143 0.10266400   1.008000   ; qtot 0.399073
 2144         hc     73    ccc     H4   2144 0.10266400   1.008000   ; qtot 0.501737
 2145         c3     73    ccc     C3   2145 -0.15693500  12.010000   ; qtot 0.344802
 2146         h1     73    ccc     H5   2146 0.08499200   1.008000   ; qtot 0.429794
 2147         h1     73    ccc     H6   2147 0.08499200   1.008000   ; qtot 0.514786
 2148         n3     73    ccc     N1   2148 -0.29948700  14.010000   ; qtot 0.215299
 2149         c3     73    ccc     C4   2149 -0.01321200  12.010000   ; qtot 0.202087
 2150         h1     73    ccc     H7   2150 0.08172200   1.008000   ; qtot 0.283809
 2151         h1     73    ccc     H8   2151 0.08172200   1.008000   ; qtot 0.365531
 2152         c3     73    ccc     C5   2152 -0.22180000  12.010000   ; qtot 0.143731
 2153         hc     73    ccc     H9   2153 0.09671800   1.008000   ; qtot 0.240449
 2154         hc     73    ccc    H10   2154 0.09671800   1.008000   ; qtot 0.337167
 2155          c     73    ccc     C6   2155 0.526324  12.010000   ; qtot 1.333694
 2156          o     73    ccc     O1   2156 -0.39142825  16.000000   ; qtot 0.637188
 2157         oh     73    ccc     O2   2157 -0.56822625  16.000000   ; qtot -0.203623
 2158         ho     73    ccc    H11   2158 0.4186155   1.008000   ; qtot 0.322452
 2159         c3     73    ccc     C7   2159 -0.01321200  12.010000   ; qtot 0.309240
 2160         h1     73    ccc    H12   2160 0.08172200   1.008000   ; qtot 0.390962
 2161         h1     73    ccc    H13   2161 0.08172200   1.008000   ; qtot 0.472684
 2162         c3     73    ccc     C8   2162 -0.22180000  12.010000   ; qtot 0.250884
 2163         hc     73    ccc    H14   2163 0.09671800   1.008000   ; qtot 0.347602
 2164         hc     73    ccc    H15   2164 0.09671800   1.008000   ; qtot 0.444320
 2165          c     73    ccc     C9   2165 0.526324  12.010000   ; qtot 1.440847
 2166          o     73    ccc     O3   2166 -0.39142825  16.000000   ; qtot 0.744341
 2167         oh     73    ccc     O4   2167 -0.56822625  16.000000   ; qtot -0.096470
 2168         ho     73    ccc    H16   2168 0.4186155   1.008000   ; qtot 0.429605
 2169         os     73    ccc     O5   2169 -0.42966500  16.000000   ; qtot -0.000060
; residue   74 ccc rtp ccc q 0.0
 2170         c3     74    ccc     C1   2170 0.50749700  12.010000   ; qtot 0.507437
 2171         h1     74    ccc     H1   2171 -0.02808400   1.008000   ; qtot 0.479353
 2172         h1     74    ccc     H2   2172 -0.02808400   1.008000   ; qtot 0.451269
 2173         c3     74    ccc     C2   2173 -0.15486000  12.010000   ; qtot 0.296409
 2174         hc     74    ccc     H3   2174 0.10266400   1.008000   ; qtot 0.399073
 2175         hc     74    ccc     H4   2175 0.10266400   1.008000   ; qtot 0.501737
 2176         c3     74    ccc     C3   2176 -0.15693500  12.010000   ; qtot 0.344802
 2177         h1     74    ccc     H5   2177 0.08499200   1.008000   ; qtot 0.429794
 2178         h1     74    ccc     H6   2178 0.08499200   1.008000   ; qtot 0.514786
 2179         n3     74    ccc     N1   2179 -0.29948700  14.010000   ; qtot 0.215299
 2180         c3     74    ccc     C4   2180 -0.01321200  12.010000   ; qtot 0.202087
 2181         h1     74    ccc     H7   2181 0.08172200   1.008000   ; qtot 0.283809
 2182         h1     74    ccc     H8   2182 0.08172200   1.008000   ; qtot 0.365531
 2183         c3     74    ccc     C5   2183 -0.22180000  12.010000   ; qtot 0.143731
 2184         hc     74    ccc     H9   2184 0.09671800   1.008000   ; qtot 0.240449
 2185         hc     74    ccc    H10   2185 0.09671800   1.008000   ; qtot 0.337167
 2186          c     74    ccc     C6   2186 0.526324  12.010000   ; qtot 1.333694
 2187          o     74    ccc     O1   2187 -0.39142825  16.000000   ; qtot 0.637188
 2188         oh     74    ccc     O2   2188 -0.56822625  16.000000   ; qtot -0.203623
 2189         ho     74    ccc    H11   2189 0.4186155   1.008000   ; qtot 0.322452
 2190         c3     74    ccc     C7   2190 -0.01321200  12.010000   ; qtot 0.309240
 2191         h1     74    ccc    H12   2191 0.08172200   1.008000   ; qtot 0.390962
 2192         h1     74    ccc    H13   2192 0.08172200   1.008000   ; qtot 0.472684
 2193         c3     74    ccc     C8   2193 -0.22180000  12.010000   ; qtot 0.250884
 2194         hc     74    ccc    H14   2194 0.09671800   1.008000   ; qtot 0.347602
 2195         hc     74    ccc    H15   2195 0.09671800   1.008000   ; qtot 0.444320
 2196          c     74    ccc     C9   2196 0.526324  12.010000   ; qtot 1.440847
 2197          o     74    ccc     O3   2197 -0.39142825  16.000000   ; qtot 0.744341
 2198         oh     74    ccc     O4   2198 -0.56822625  16.000000   ; qtot -0.096470
 2199         ho     74    ccc    H16   2199 0.4186155   1.008000   ; qtot 0.429605
 2200         os     74    ccc     O5   2200 -0.42966500  16.000000   ; qtot -0.000060
; residue   75 ccc rtp ccc q 0.0
 2201         c3     75    ccc     C1   2201 0.50749700  12.010000   ; qtot 0.507437
 2202         h1     75    ccc     H1   2202 -0.02808400   1.008000   ; qtot 0.479353
 2203         h1     75    ccc     H2   2203 -0.02808400   1.008000   ; qtot 0.451269
 2204         c3     75    ccc     C2   2204 -0.15486000  12.010000   ; qtot 0.296409
 2205         hc     75    ccc     H3   2205 0.10266400   1.008000   ; qtot 0.399073
 2206         hc     75    ccc     H4   2206 0.10266400   1.008000   ; qtot 0.501737
 2207         c3     75    ccc     C3   2207 -0.15693500  12.010000   ; qtot 0.344802
 2208         h1     75    ccc     H5   2208 0.08499200   1.008000   ; qtot 0.429794
 2209         h1     75    ccc     H6   2209 0.08499200   1.008000   ; qtot 0.514786
 2210         n3     75    ccc     N1   2210 -0.29948700  14.010000   ; qtot 0.215299
 2211         c3     75    ccc     C4   2211 -0.01321200  12.010000   ; qtot 0.202087
 2212         h1     75    ccc     H7   2212 0.08172200   1.008000   ; qtot 0.283809
 2213         h1     75    ccc     H8   2213 0.08172200   1.008000   ; qtot 0.365531
 2214         c3     75    ccc     C5   2214 -0.22180000  12.010000   ; qtot 0.143731
 2215         hc     75    ccc     H9   2215 0.09671800   1.008000   ; qtot 0.240449
 2216         hc     75    ccc    H10   2216 0.09671800   1.008000   ; qtot 0.337167
 2217          c     75    ccc     C6   2217 0.526324  12.010000   ; qtot 1.333694
 2218          o     75    ccc     O1   2218 -0.39142825  16.000000   ; qtot 0.637188
 2219         oh     75    ccc     O2   2219 -0.56822625  16.000000   ; qtot -0.203623
 2220         ho     75    ccc    H11   2220 0.4186155   1.008000   ; qtot 0.322452
 2221         c3     75    ccc     C7   2221 -0.01321200  12.010000   ; qtot 0.309240
 2222         h1     75    ccc    H12   2222 0.08172200   1.008000   ; qtot 0.390962
 2223         h1     75    ccc    H13   2223 0.08172200   1.008000   ; qtot 0.472684
 2224         c3     75    ccc     C8   2224 -0.22180000  12.010000   ; qtot 0.250884
 2225         hc     75    ccc    H14   2225 0.09671800   1.008000   ; qtot 0.347602
 2226         hc     75    ccc    H15   2226 0.09671800   1.008000   ; qtot 0.444320
 2227          c     75    ccc     C9   2227 0.526324  12.010000   ; qtot 1.440847
 2228          o     75    ccc     O3   2228 -0.39142825  16.000000   ; qtot 0.744341
 2229         oh     75    ccc     O4   2229 -0.56822625  16.000000   ; qtot -0.096470
 2230         ho     75    ccc    H16   2230 0.4186155   1.008000   ; qtot 0.429605
 2231         os     75    ccc     O5   2231 -0.42966500  16.000000   ; qtot -0.000060
; residue   76 ccc rtp ccc q 0.0
 2232         c3     76    ccc     C1   2232 0.50749700  12.010000   ; qtot 0.507437
 2233         h1     76    ccc     H1   2233 -0.02808400   1.008000   ; qtot 0.479353
 2234         h1     76    ccc     H2   2234 -0.02808400   1.008000   ; qtot 0.451269
 2235         c3     76    ccc     C2   2235 -0.15486000  12.010000   ; qtot 0.296409
 2236         hc     76    ccc     H3   2236 0.10266400   1.008000   ; qtot 0.399073
 2237         hc     76    ccc     H4   2237 0.10266400   1.008000   ; qtot 0.501737
 2238         c3     76    ccc     C3   2238 -0.15693500  12.010000   ; qtot 0.344802
 2239         h1     76    ccc     H5   2239 0.08499200   1.008000   ; qtot 0.429794
 2240         h1     76    ccc     H6   2240 0.08499200   1.008000   ; qtot 0.514786
 2241         n3     76    ccc     N1   2241 -0.29948700  14.010000   ; qtot 0.215299
 2242         c3     76    ccc     C4   2242 -0.01321200  12.010000   ; qtot 0.202087
 2243         h1     76    ccc     H7   2243 0.08172200   1.008000   ; qtot 0.283809
 2244         h1     76    ccc     H8   2244 0.08172200   1.008000   ; qtot 0.365531
 2245         c3     76    ccc     C5   2245 -0.22180000  12.010000   ; qtot 0.143731
 2246         hc     76    ccc     H9   2246 0.09671800   1.008000   ; qtot 0.240449
 2247         hc     76    ccc    H10   2247 0.09671800   1.008000   ; qtot 0.337167
 2248          c     76    ccc     C6   2248 0.526324  12.010000   ; qtot 1.333694
 2249          o     76    ccc     O1   2249 -0.39142825  16.000000   ; qtot 0.637188
 2250         oh     76    ccc     O2   2250 -0.56822625  16.000000   ; qtot -0.203623
 2251         ho     76    ccc    H11   2251 0.4186155   1.008000   ; qtot 0.322452
 2252         c3     76    ccc     C7   2252 -0.01321200  12.010000   ; qtot 0.309240
 2253         h1     76    ccc    H12   2253 0.08172200   1.008000   ; qtot 0.390962
 2254         h1     76    ccc    H13   2254 0.08172200   1.008000   ; qtot 0.472684
 2255         c3     76    ccc     C8   2255 -0.22180000  12.010000   ; qtot 0.250884
 2256         hc     76    ccc    H14   2256 0.09671800   1.008000   ; qtot 0.347602
 2257         hc     76    ccc    H15   2257 0.09671800   1.008000   ; qtot 0.444320
 2258          c     76    ccc     C9   2258 0.526324  12.010000   ; qtot 1.440847
 2259          o     76    ccc     O3   2259 -0.39142825  16.000000   ; qtot 0.744341
 2260         oh     76    ccc     O4   2260 -0.56822625  16.000000   ; qtot -0.096470
 2261         ho     76    ccc    H16   2261 0.4186155   1.008000   ; qtot 0.429605
 2262         os     76    ccc     O5   2262 -0.42966500  16.000000   ; qtot -0.000060
; residue   77 ccc rtp ccc q 0.0
 2263         c3     77    ccc     C1   2263 0.50749700  12.010000   ; qtot 0.507437
 2264         h1     77    ccc     H1   2264 -0.02808400   1.008000   ; qtot 0.479353
 2265         h1     77    ccc     H2   2265 -0.02808400   1.008000   ; qtot 0.451269
 2266         c3     77    ccc     C2   2266 -0.15486000  12.010000   ; qtot 0.296409
 2267         hc     77    ccc     H3   2267 0.10266400   1.008000   ; qtot 0.399073
 2268         hc     77    ccc     H4   2268 0.10266400   1.008000   ; qtot 0.501737
 2269         c3     77    ccc     C3   2269 -0.15693500  12.010000   ; qtot 0.344802
 2270         h1     77    ccc     H5   2270 0.08499200   1.008000   ; qtot 0.429794
 2271         h1     77    ccc     H6   2271 0.08499200   1.008000   ; qtot 0.514786
 2272         n3     77    ccc     N1   2272 -0.29948700  14.010000   ; qtot 0.215299
 2273         c3     77    ccc     C4   2273 -0.01321200  12.010000   ; qtot 0.202087
 2274         h1     77    ccc     H7   2274 0.08172200   1.008000   ; qtot 0.283809
 2275         h1     77    ccc     H8   2275 0.08172200   1.008000   ; qtot 0.365531
 2276         c3     77    ccc     C5   2276 -0.22180000  12.010000   ; qtot 0.143731
 2277         hc     77    ccc     H9   2277 0.09671800   1.008000   ; qtot 0.240449
 2278         hc     77    ccc    H10   2278 0.09671800   1.008000   ; qtot 0.337167
 2279          c     77    ccc     C6   2279 0.526324  12.010000   ; qtot 1.333694
 2280          o     77    ccc     O1   2280 -0.39142825  16.000000   ; qtot 0.637188
 2281         oh     77    ccc     O2   2281 -0.56822625  16.000000   ; qtot -0.203623
 2282         ho     77    ccc    H11   2282 0.4186155   1.008000   ; qtot 0.322452
 2283         c3     77    ccc     C7   2283 -0.01321200  12.010000   ; qtot 0.309240
 2284         h1     77    ccc    H12   2284 0.08172200   1.008000   ; qtot 0.390962
 2285         h1     77    ccc    H13   2285 0.08172200   1.008000   ; qtot 0.472684
 2286         c3     77    ccc     C8   2286 -0.22180000  12.010000   ; qtot 0.250884
 2287         hc     77    ccc    H14   2287 0.09671800   1.008000   ; qtot 0.347602
 2288         hc     77    ccc    H15   2288 0.09671800   1.008000   ; qtot 0.444320
 2289          c     77    ccc     C9   2289 0.526324  12.010000   ; qtot 1.440847
 2290          o     77    ccc     O3   2290 -0.39142825  16.000000   ; qtot 0.744341
 2291         oh     77    ccc     O4   2291 -0.56822625  16.000000   ; qtot -0.096470
 2292         ho     77    ccc    H16   2292 0.4186155   1.008000   ; qtot 0.429605
 2293         os     77    ccc     O5   2293 -0.42966500  16.000000   ; qtot -0.000060
; residue   78 ccc rtp ccc q 0.0
 2294         c3     78    ccc     C1   2294 0.50749700  12.010000   ; qtot 0.507437
 2295         h1     78    ccc     H1   2295 -0.02808400   1.008000   ; qtot 0.479353
 2296         h1     78    ccc     H2   2296 -0.02808400   1.008000   ; qtot 0.451269
 2297         c3     78    ccc     C2   2297 -0.15486000  12.010000   ; qtot 0.296409
 2298         hc     78    ccc     H3   2298 0.10266400   1.008000   ; qtot 0.399073
 2299         hc     78    ccc     H4   2299 0.10266400   1.008000   ; qtot 0.501737
 2300         c3     78    ccc     C3   2300 -0.15693500  12.010000   ; qtot 0.344802
 2301         h1     78    ccc     H5   2301 0.08499200   1.008000   ; qtot 0.429794
 2302         h1     78    ccc     H6   2302 0.08499200   1.008000   ; qtot 0.514786
 2303         n3     78    ccc     N1   2303 -0.29948700  14.010000   ; qtot 0.215299
 2304         c3     78    ccc     C4   2304 -0.01321200  12.010000   ; qtot 0.202087
 2305         h1     78    ccc     H7   2305 0.08172200   1.008000   ; qtot 0.283809
 2306         h1     78    ccc     H8   2306 0.08172200   1.008000   ; qtot 0.365531
 2307         c3     78    ccc     C5   2307 -0.22180000  12.010000   ; qtot 0.143731
 2308         hc     78    ccc     H9   2308 0.09671800   1.008000   ; qtot 0.240449
 2309         hc     78    ccc    H10   2309 0.09671800   1.008000   ; qtot 0.337167
 2310          c     78    ccc     C6   2310 0.526324  12.010000   ; qtot 1.333694
 2311          o     78    ccc     O1   2311 -0.39142825  16.000000   ; qtot 0.637188
 2312         oh     78    ccc     O2   2312 -0.56822625  16.000000   ; qtot -0.203623
 2313         ho     78    ccc    H11   2313 0.4186155   1.008000   ; qtot 0.322452
 2314         c3     78    ccc     C7   2314 -0.01321200  12.010000   ; qtot 0.309240
 2315         h1     78    ccc    H12   2315 0.08172200   1.008000   ; qtot 0.390962
 2316         h1     78    ccc    H13   2316 0.08172200   1.008000   ; qtot 0.472684
 2317         c3     78    ccc     C8   2317 -0.22180000  12.010000   ; qtot 0.250884
 2318         hc     78    ccc    H14   2318 0.09671800   1.008000   ; qtot 0.347602
 2319         hc     78    ccc    H15   2319 0.09671800   1.008000   ; qtot 0.444320
 2320          c     78    ccc     C9   2320 0.526324  12.010000   ; qtot 1.440847
 2321          o     78    ccc     O3   2321 -0.39142825  16.000000   ; qtot 0.744341
 2322         oh     78    ccc     O4   2322 -0.56822625  16.000000   ; qtot -0.096470
 2323         ho     78    ccc    H16   2323 0.4186155   1.008000   ; qtot 0.429605
 2324         os     78    ccc     O5   2324 -0.42966500  16.000000   ; qtot -0.000060
; residue   79 ccc rtp ccc q 0.0
 2325         c3     79    ccc     C1   2325 0.50749700  12.010000   ; qtot 0.507437
 2326         h1     79    ccc     H1   2326 -0.02808400   1.008000   ; qtot 0.479353
 2327         h1     79    ccc     H2   2327 -0.02808400   1.008000   ; qtot 0.451269
 2328         c3     79    ccc     C2   2328 -0.15486000  12.010000   ; qtot 0.296409
 2329         hc     79    ccc     H3   2329 0.10266400   1.008000   ; qtot 0.399073
 2330         hc     79    ccc     H4   2330 0.10266400   1.008000   ; qtot 0.501737
 2331         c3     79    ccc     C3   2331 -0.15693500  12.010000   ; qtot 0.344802
 2332         h1     79    ccc     H5   2332 0.08499200   1.008000   ; qtot 0.429794
 2333         h1     79    ccc     H6   2333 0.08499200   1.008000   ; qtot 0.514786
 2334         n3     79    ccc     N1   2334 -0.29948700  14.010000   ; qtot 0.215299
 2335         c3     79    ccc     C4   2335 -0.01321200  12.010000   ; qtot 0.202087
 2336         h1     79    ccc     H7   2336 0.08172200   1.008000   ; qtot 0.283809
 2337         h1     79    ccc     H8   2337 0.08172200   1.008000   ; qtot 0.365531
 2338         c3     79    ccc     C5   2338 -0.22180000  12.010000   ; qtot 0.143731
 2339         hc     79    ccc     H9   2339 0.09671800   1.008000   ; qtot 0.240449
 2340         hc     79    ccc    H10   2340 0.09671800   1.008000   ; qtot 0.337167
 2341          c     79    ccc     C6   2341 0.526324  12.010000   ; qtot 1.333694
 2342          o     79    ccc     O1   2342 -0.39142825  16.000000   ; qtot 0.637188
 2343         oh     79    ccc     O2   2343 -0.56822625  16.000000   ; qtot -0.203623
 2344         ho     79    ccc    H11   2344 0.4186155   1.008000   ; qtot 0.322452
 2345         c3     79    ccc     C7   2345 -0.01321200  12.010000   ; qtot 0.309240
 2346         h1     79    ccc    H12   2346 0.08172200   1.008000   ; qtot 0.390962
 2347         h1     79    ccc    H13   2347 0.08172200   1.008000   ; qtot 0.472684
 2348         c3     79    ccc     C8   2348 -0.22180000  12.010000   ; qtot 0.250884
 2349         hc     79    ccc    H14   2349 0.09671800   1.008000   ; qtot 0.347602
 2350         hc     79    ccc    H15   2350 0.09671800   1.008000   ; qtot 0.444320
 2351          c     79    ccc     C9   2351 0.526324  12.010000   ; qtot 1.440847
 2352          o     79    ccc     O3   2352 -0.39142825  16.000000   ; qtot 0.744341
 2353         oh     79    ccc     O4   2353 -0.56822625  16.000000   ; qtot -0.096470
 2354         ho     79    ccc    H16   2354 0.4186155   1.008000   ; qtot 0.429605
 2355         os     79    ccc     O5   2355 -0.42966500  16.000000   ; qtot -0.000060
; residue   80 ccc rtp ccc q 0.0
 2356         c3     80    ccc     C1   2356 0.50749700  12.010000   ; qtot 0.507437
 2357         h1     80    ccc     H1   2357 -0.02808400   1.008000   ; qtot 0.479353
 2358         h1     80    ccc     H2   2358 -0.02808400   1.008000   ; qtot 0.451269
 2359         c3     80    ccc     C2   2359 -0.15486000  12.010000   ; qtot 0.296409
 2360         hc     80    ccc     H3   2360 0.10266400   1.008000   ; qtot 0.399073
 2361         hc     80    ccc     H4   2361 0.10266400   1.008000   ; qtot 0.501737
 2362         c3     80    ccc     C3   2362 -0.15693500  12.010000   ; qtot 0.344802
 2363         h1     80    ccc     H5   2363 0.08499200   1.008000   ; qtot 0.429794
 2364         h1     80    ccc     H6   2364 0.08499200   1.008000   ; qtot 0.514786
 2365         n3     80    ccc     N1   2365 -0.29948700  14.010000   ; qtot 0.215299
 2366         c3     80    ccc     C4   2366 -0.01321200  12.010000   ; qtot 0.202087
 2367         h1     80    ccc     H7   2367 0.08172200   1.008000   ; qtot 0.283809
 2368         h1     80    ccc     H8   2368 0.08172200   1.008000   ; qtot 0.365531
 2369         c3     80    ccc     C5   2369 -0.22180000  12.010000   ; qtot 0.143731
 2370         hc     80    ccc     H9   2370 0.09671800   1.008000   ; qtot 0.240449
 2371         hc     80    ccc    H10   2371 0.09671800   1.008000   ; qtot 0.337167
 2372          c     80    ccc     C6   2372 0.526324  12.010000   ; qtot 1.333694
 2373          o     80    ccc     O1   2373 -0.39142825  16.000000   ; qtot 0.637188
 2374         oh     80    ccc     O2   2374 -0.56822625  16.000000   ; qtot -0.203623
 2375         ho     80    ccc    H11   2375 0.4186155   1.008000   ; qtot 0.322452
 2376         c3     80    ccc     C7   2376 -0.01321200  12.010000   ; qtot 0.309240
 2377         h1     80    ccc    H12   2377 0.08172200   1.008000   ; qtot 0.390962
 2378         h1     80    ccc    H13   2378 0.08172200   1.008000   ; qtot 0.472684
 2379         c3     80    ccc     C8   2379 -0.22180000  12.010000   ; qtot 0.250884
 2380         hc     80    ccc    H14   2380 0.09671800   1.008000   ; qtot 0.347602
 2381         hc     80    ccc    H15   2381 0.09671800   1.008000   ; qtot 0.444320
 2382          c     80    ccc     C9   2382 0.526324  12.010000   ; qtot 1.440847
 2383          o     80    ccc     O3   2383 -0.39142825  16.000000   ; qtot 0.744341
 2384         oh     80    ccc     O4   2384 -0.56822625  16.000000   ; qtot -0.096470
 2385         ho     80    ccc    H16   2385 0.4186155   1.008000   ; qtot 0.429605
 2386         os     80    ccc     O5   2386 -0.42966500  16.000000   ; qtot -0.000060
; residue   81 ccc rtp ccc q 0.0
 2387         c3     81    ccc     C1   2387 0.50749700  12.010000   ; qtot 0.507437
 2388         h1     81    ccc     H1   2388 -0.02808400   1.008000   ; qtot 0.479353
 2389         h1     81    ccc     H2   2389 -0.02808400   1.008000   ; qtot 0.451269
 2390         c3     81    ccc     C2   2390 -0.15486000  12.010000   ; qtot 0.296409
 2391         hc     81    ccc     H3   2391 0.10266400   1.008000   ; qtot 0.399073
 2392         hc     81    ccc     H4   2392 0.10266400   1.008000   ; qtot 0.501737
 2393         c3     81    ccc     C3   2393 -0.15693500  12.010000   ; qtot 0.344802
 2394         h1     81    ccc     H5   2394 0.08499200   1.008000   ; qtot 0.429794
 2395         h1     81    ccc     H6   2395 0.08499200   1.008000   ; qtot 0.514786
 2396         n3     81    ccc     N1   2396 -0.29948700  14.010000   ; qtot 0.215299
 2397         c3     81    ccc     C4   2397 -0.01321200  12.010000   ; qtot 0.202087
 2398         h1     81    ccc     H7   2398 0.08172200   1.008000   ; qtot 0.283809
 2399         h1     81    ccc     H8   2399 0.08172200   1.008000   ; qtot 0.365531
 2400         c3     81    ccc     C5   2400 -0.22180000  12.010000   ; qtot 0.143731
 2401         hc     81    ccc     H9   2401 0.09671800   1.008000   ; qtot 0.240449
 2402         hc     81    ccc    H10   2402 0.09671800   1.008000   ; qtot 0.337167
 2403          c     81    ccc     C6   2403 0.526324  12.010000   ; qtot 1.333694
 2404          o     81    ccc     O1   2404 -0.39142825  16.000000   ; qtot 0.637188
 2405         oh     81    ccc     O2   2405 -0.56822625  16.000000   ; qtot -0.203623
 2406         ho     81    ccc    H11   2406 0.4186155   1.008000   ; qtot 0.322452
 2407         c3     81    ccc     C7   2407 -0.01321200  12.010000   ; qtot 0.309240
 2408         h1     81    ccc    H12   2408 0.08172200   1.008000   ; qtot 0.390962
 2409         h1     81    ccc    H13   2409 0.08172200   1.008000   ; qtot 0.472684
 2410         c3     81    ccc     C8   2410 -0.22180000  12.010000   ; qtot 0.250884
 2411         hc     81    ccc    H14   2411 0.09671800   1.008000   ; qtot 0.347602
 2412         hc     81    ccc    H15   2412 0.09671800   1.008000   ; qtot 0.444320
 2413          c     81    ccc     C9   2413 0.526324  12.010000   ; qtot 1.440847
 2414          o     81    ccc     O3   2414 -0.39142825  16.000000   ; qtot 0.744341
 2415         oh     81    ccc     O4   2415 -0.56822625  16.000000   ; qtot -0.096470
 2416         ho     81    ccc    H16   2416 0.4186155   1.008000   ; qtot 0.429605
 2417         os     81    ccc     O5   2417 -0.42966500  16.000000   ; qtot -0.000060
; residue   82 ccc rtp ccc q 0.0
 2418         c3     82    ccc     C1   2418 0.50749700  12.010000   ; qtot 0.507437
 2419         h1     82    ccc     H1   2419 -0.02808400   1.008000   ; qtot 0.479353
 2420         h1     82    ccc     H2   2420 -0.02808400   1.008000   ; qtot 0.451269
 2421         c3     82    ccc     C2   2421 -0.15486000  12.010000   ; qtot 0.296409
 2422         hc     82    ccc     H3   2422 0.10266400   1.008000   ; qtot 0.399073
 2423         hc     82    ccc     H4   2423 0.10266400   1.008000   ; qtot 0.501737
 2424         c3     82    ccc     C3   2424 -0.15693500  12.010000   ; qtot 0.344802
 2425         h1     82    ccc     H5   2425 0.08499200   1.008000   ; qtot 0.429794
 2426         h1     82    ccc     H6   2426 0.08499200   1.008000   ; qtot 0.514786
 2427         n3     82    ccc     N1   2427 -0.29948700  14.010000   ; qtot 0.215299
 2428         c3     82    ccc     C4   2428 -0.01321200  12.010000   ; qtot 0.202087
 2429         h1     82    ccc     H7   2429 0.08172200   1.008000   ; qtot 0.283809
 2430         h1     82    ccc     H8   2430 0.08172200   1.008000   ; qtot 0.365531
 2431         c3     82    ccc     C5   2431 -0.22180000  12.010000   ; qtot 0.143731
 2432         hc     82    ccc     H9   2432 0.09671800   1.008000   ; qtot 0.240449
 2433         hc     82    ccc    H10   2433 0.09671800   1.008000   ; qtot 0.337167
 2434          c     82    ccc     C6   2434 0.526324  12.010000   ; qtot 1.333694
 2435          o     82    ccc     O1   2435 -0.39142825  16.000000   ; qtot 0.637188
 2436         oh     82    ccc     O2   2436 -0.56822625  16.000000   ; qtot -0.203623
 2437         ho     82    ccc    H11   2437 0.4186155   1.008000   ; qtot 0.322452
 2438         c3     82    ccc     C7   2438 -0.01321200  12.010000   ; qtot 0.309240
 2439         h1     82    ccc    H12   2439 0.08172200   1.008000   ; qtot 0.390962
 2440         h1     82    ccc    H13   2440 0.08172200   1.008000   ; qtot 0.472684
 2441         c3     82    ccc     C8   2441 -0.22180000  12.010000   ; qtot 0.250884
 2442         hc     82    ccc    H14   2442 0.09671800   1.008000   ; qtot 0.347602
 2443         hc     82    ccc    H15   2443 0.09671800   1.008000   ; qtot 0.444320
 2444          c     82    ccc     C9   2444 0.526324  12.010000   ; qtot 1.440847
 2445          o     82    ccc     O3   2445 -0.39142825  16.000000   ; qtot 0.744341
 2446         oh     82    ccc     O4   2446 -0.56822625  16.000000   ; qtot -0.096470
 2447         ho     82    ccc    H16   2447 0.4186155   1.008000   ; qtot 0.429605
 2448         os     82    ccc     O5   2448 -0.42966500  16.000000   ; qtot -0.000060
; residue   83 ccc rtp ccc q 0.0
 2449         c3     83    ccc     C1   2449 0.50749700  12.010000   ; qtot 0.507437
 2450         h1     83    ccc     H1   2450 -0.02808400   1.008000   ; qtot 0.479353
 2451         h1     83    ccc     H2   2451 -0.02808400   1.008000   ; qtot 0.451269
 2452         c3     83    ccc     C2   2452 -0.15486000  12.010000   ; qtot 0.296409
 2453         hc     83    ccc     H3   2453 0.10266400   1.008000   ; qtot 0.399073
 2454         hc     83    ccc     H4   2454 0.10266400   1.008000   ; qtot 0.501737
 2455         c3     83    ccc     C3   2455 -0.15693500  12.010000   ; qtot 0.344802
 2456         h1     83    ccc     H5   2456 0.08499200   1.008000   ; qtot 0.429794
 2457         h1     83    ccc     H6   2457 0.08499200   1.008000   ; qtot 0.514786
 2458         n3     83    ccc     N1   2458 -0.29948700  14.010000   ; qtot 0.215299
 2459         c3     83    ccc     C4   2459 -0.01321200  12.010000   ; qtot 0.202087
 2460         h1     83    ccc     H7   2460 0.08172200   1.008000   ; qtot 0.283809
 2461         h1     83    ccc     H8   2461 0.08172200   1.008000   ; qtot 0.365531
 2462         c3     83    ccc     C5   2462 -0.22180000  12.010000   ; qtot 0.143731
 2463         hc     83    ccc     H9   2463 0.09671800   1.008000   ; qtot 0.240449
 2464         hc     83    ccc    H10   2464 0.09671800   1.008000   ; qtot 0.337167
 2465          c     83    ccc     C6   2465 0.526324  12.010000   ; qtot 1.333694
 2466          o     83    ccc     O1   2466 -0.39142825  16.000000   ; qtot 0.637188
 2467         oh     83    ccc     O2   2467 -0.56822625  16.000000   ; qtot -0.203623
 2468         ho     83    ccc    H11   2468 0.4186155   1.008000   ; qtot 0.322452
 2469         c3     83    ccc     C7   2469 -0.01321200  12.010000   ; qtot 0.309240
 2470         h1     83    ccc    H12   2470 0.08172200   1.008000   ; qtot 0.390962
 2471         h1     83    ccc    H13   2471 0.08172200   1.008000   ; qtot 0.472684
 2472         c3     83    ccc     C8   2472 -0.22180000  12.010000   ; qtot 0.250884
 2473         hc     83    ccc    H14   2473 0.09671800   1.008000   ; qtot 0.347602
 2474         hc     83    ccc    H15   2474 0.09671800   1.008000   ; qtot 0.444320
 2475          c     83    ccc     C9   2475 0.526324  12.010000   ; qtot 1.440847
 2476          o     83    ccc     O3   2476 -0.39142825  16.000000   ; qtot 0.744341
 2477         oh     83    ccc     O4   2477 -0.56822625  16.000000   ; qtot -0.096470
 2478         ho     83    ccc    H16   2478 0.4186155   1.008000   ; qtot 0.429605
 2479         os     83    ccc     O5   2479 -0.42966500  16.000000   ; qtot -0.000060
; residue   84 ccc rtp ccc q 0.0
 2480         c3     84    ccc     C1   2480 0.50749700  12.010000   ; qtot 0.507437
 2481         h1     84    ccc     H1   2481 -0.02808400   1.008000   ; qtot 0.479353
 2482         h1     84    ccc     H2   2482 -0.02808400   1.008000   ; qtot 0.451269
 2483         c3     84    ccc     C2   2483 -0.15486000  12.010000   ; qtot 0.296409
 2484         hc     84    ccc     H3   2484 0.10266400   1.008000   ; qtot 0.399073
 2485         hc     84    ccc     H4   2485 0.10266400   1.008000   ; qtot 0.501737
 2486         c3     84    ccc     C3   2486 -0.15693500  12.010000   ; qtot 0.344802
 2487         h1     84    ccc     H5   2487 0.08499200   1.008000   ; qtot 0.429794
 2488         h1     84    ccc     H6   2488 0.08499200   1.008000   ; qtot 0.514786
 2489         n3     84    ccc     N1   2489 -0.29948700  14.010000   ; qtot 0.215299
 2490         c3     84    ccc     C4   2490 -0.01321200  12.010000   ; qtot 0.202087
 2491         h1     84    ccc     H7   2491 0.08172200   1.008000   ; qtot 0.283809
 2492         h1     84    ccc     H8   2492 0.08172200   1.008000   ; qtot 0.365531
 2493         c3     84    ccc     C5   2493 -0.22180000  12.010000   ; qtot 0.143731
 2494         hc     84    ccc     H9   2494 0.09671800   1.008000   ; qtot 0.240449
 2495         hc     84    ccc    H10   2495 0.09671800   1.008000   ; qtot 0.337167
 2496          c     84    ccc     C6   2496 0.526324  12.010000   ; qtot 1.333694
 2497          o     84    ccc     O1   2497 -0.39142825  16.000000   ; qtot 0.637188
 2498         oh     84    ccc     O2   2498 -0.56822625  16.000000   ; qtot -0.203623
 2499         ho     84    ccc    H11   2499 0.4186155   1.008000   ; qtot 0.322452
 2500         c3     84    ccc     C7   2500 -0.01321200  12.010000   ; qtot 0.309240
 2501         h1     84    ccc    H12   2501 0.08172200   1.008000   ; qtot 0.390962
 2502         h1     84    ccc    H13   2502 0.08172200   1.008000   ; qtot 0.472684
 2503         c3     84    ccc     C8   2503 -0.22180000  12.010000   ; qtot 0.250884
 2504         hc     84    ccc    H14   2504 0.09671800   1.008000   ; qtot 0.347602
 2505         hc     84    ccc    H15   2505 0.09671800   1.008000   ; qtot 0.444320
 2506          c     84    ccc     C9   2506 0.526324  12.010000   ; qtot 1.440847
 2507          o     84    ccc     O3   2507 -0.39142825  16.000000   ; qtot 0.744341
 2508         oh     84    ccc     O4   2508 -0.56822625  16.000000   ; qtot -0.096470
 2509         ho     84    ccc    H16   2509 0.4186155   1.008000   ; qtot 0.429605
 2510         os     84    ccc     O5   2510 -0.42966500  16.000000   ; qtot -0.000060
; residue   85 ccc rtp ccc q 0.0
 2511         c3     85    ccc     C1   2511 0.50749700  12.010000   ; qtot 0.507437
 2512         h1     85    ccc     H1   2512 -0.02808400   1.008000   ; qtot 0.479353
 2513         h1     85    ccc     H2   2513 -0.02808400   1.008000   ; qtot 0.451269
 2514         c3     85    ccc     C2   2514 -0.15486000  12.010000   ; qtot 0.296409
 2515         hc     85    ccc     H3   2515 0.10266400   1.008000   ; qtot 0.399073
 2516         hc     85    ccc     H4   2516 0.10266400   1.008000   ; qtot 0.501737
 2517         c3     85    ccc     C3   2517 -0.15693500  12.010000   ; qtot 0.344802
 2518         h1     85    ccc     H5   2518 0.08499200   1.008000   ; qtot 0.429794
 2519         h1     85    ccc     H6   2519 0.08499200   1.008000   ; qtot 0.514786
 2520         n3     85    ccc     N1   2520 -0.29948700  14.010000   ; qtot 0.215299
 2521         c3     85    ccc     C4   2521 -0.01321200  12.010000   ; qtot 0.202087
 2522         h1     85    ccc     H7   2522 0.08172200   1.008000   ; qtot 0.283809
 2523         h1     85    ccc     H8   2523 0.08172200   1.008000   ; qtot 0.365531
 2524         c3     85    ccc     C5   2524 -0.22180000  12.010000   ; qtot 0.143731
 2525         hc     85    ccc     H9   2525 0.09671800   1.008000   ; qtot 0.240449
 2526         hc     85    ccc    H10   2526 0.09671800   1.008000   ; qtot 0.337167
 2527          c     85    ccc     C6   2527 0.526324  12.010000   ; qtot 1.333694
 2528          o     85    ccc     O1   2528 -0.39142825  16.000000   ; qtot 0.637188
 2529         oh     85    ccc     O2   2529 -0.56822625  16.000000   ; qtot -0.203623
 2530         ho     85    ccc    H11   2530 0.4186155   1.008000   ; qtot 0.322452
 2531         c3     85    ccc     C7   2531 -0.01321200  12.010000   ; qtot 0.309240
 2532         h1     85    ccc    H12   2532 0.08172200   1.008000   ; qtot 0.390962
 2533         h1     85    ccc    H13   2533 0.08172200   1.008000   ; qtot 0.472684
 2534         c3     85    ccc     C8   2534 -0.22180000  12.010000   ; qtot 0.250884
 2535         hc     85    ccc    H14   2535 0.09671800   1.008000   ; qtot 0.347602
 2536         hc     85    ccc    H15   2536 0.09671800   1.008000   ; qtot 0.444320
 2537          c     85    ccc     C9   2537 0.526324  12.010000   ; qtot 1.440847
 2538          o     85    ccc     O3   2538 -0.39142825  16.000000   ; qtot 0.744341
 2539         oh     85    ccc     O4   2539 -0.56822625  16.000000   ; qtot -0.096470
 2540         ho     85    ccc    H16   2540 0.4186155   1.008000   ; qtot 0.429605
 2541         os     85    ccc     O5   2541 -0.42966500  16.000000   ; qtot -0.000060
; residue   86 ccc rtp ccc q 0.0
 2542         c3     86    ccc     C1   2542 0.50749700  12.010000   ; qtot 0.507437
 2543         h1     86    ccc     H1   2543 -0.02808400   1.008000   ; qtot 0.479353
 2544         h1     86    ccc     H2   2544 -0.02808400   1.008000   ; qtot 0.451269
 2545         c3     86    ccc     C2   2545 -0.15486000  12.010000   ; qtot 0.296409
 2546         hc     86    ccc     H3   2546 0.10266400   1.008000   ; qtot 0.399073
 2547         hc     86    ccc     H4   2547 0.10266400   1.008000   ; qtot 0.501737
 2548         c3     86    ccc     C3   2548 -0.15693500  12.010000   ; qtot 0.344802
 2549         h1     86    ccc     H5   2549 0.08499200   1.008000   ; qtot 0.429794
 2550         h1     86    ccc     H6   2550 0.08499200   1.008000   ; qtot 0.514786
 2551         n3     86    ccc     N1   2551 -0.29948700  14.010000   ; qtot 0.215299
 2552         c3     86    ccc     C4   2552 -0.01321200  12.010000   ; qtot 0.202087
 2553         h1     86    ccc     H7   2553 0.08172200   1.008000   ; qtot 0.283809
 2554         h1     86    ccc     H8   2554 0.08172200   1.008000   ; qtot 0.365531
 2555         c3     86    ccc     C5   2555 -0.22180000  12.010000   ; qtot 0.143731
 2556         hc     86    ccc     H9   2556 0.09671800   1.008000   ; qtot 0.240449
 2557         hc     86    ccc    H10   2557 0.09671800   1.008000   ; qtot 0.337167
 2558          c     86    ccc     C6   2558 0.526324  12.010000   ; qtot 1.333694
 2559          o     86    ccc     O1   2559 -0.39142825  16.000000   ; qtot 0.637188
 2560         oh     86    ccc     O2   2560 -0.56822625  16.000000   ; qtot -0.203623
 2561         ho     86    ccc    H11   2561 0.4186155   1.008000   ; qtot 0.322452
 2562         c3     86    ccc     C7   2562 -0.01321200  12.010000   ; qtot 0.309240
 2563         h1     86    ccc    H12   2563 0.08172200   1.008000   ; qtot 0.390962
 2564         h1     86    ccc    H13   2564 0.08172200   1.008000   ; qtot 0.472684
 2565         c3     86    ccc     C8   2565 -0.22180000  12.010000   ; qtot 0.250884
 2566         hc     86    ccc    H14   2566 0.09671800   1.008000   ; qtot 0.347602
 2567         hc     86    ccc    H15   2567 0.09671800   1.008000   ; qtot 0.444320
 2568          c     86    ccc     C9   2568 0.526324  12.010000   ; qtot 1.440847
 2569          o     86    ccc     O3   2569 -0.39142825  16.000000   ; qtot 0.744341
 2570         oh     86    ccc     O4   2570 -0.56822625  16.000000   ; qtot -0.096470
 2571         ho     86    ccc    H16   2571 0.4186155   1.008000   ; qtot 0.429605
 2572         os     86    ccc     O5   2572 -0.42966500  16.000000   ; qtot -0.000060
; residue   87 ccc rtp ccc q 0.0
 2573         c3     87    ccc     C1   2573 0.50749700  12.010000   ; qtot 0.507437
 2574         h1     87    ccc     H1   2574 -0.02808400   1.008000   ; qtot 0.479353
 2575         h1     87    ccc     H2   2575 -0.02808400   1.008000   ; qtot 0.451269
 2576         c3     87    ccc     C2   2576 -0.15486000  12.010000   ; qtot 0.296409
 2577         hc     87    ccc     H3   2577 0.10266400   1.008000   ; qtot 0.399073
 2578         hc     87    ccc     H4   2578 0.10266400   1.008000   ; qtot 0.501737
 2579         c3     87    ccc     C3   2579 -0.15693500  12.010000   ; qtot 0.344802
 2580         h1     87    ccc     H5   2580 0.08499200   1.008000   ; qtot 0.429794
 2581         h1     87    ccc     H6   2581 0.08499200   1.008000   ; qtot 0.514786
 2582         n3     87    ccc     N1   2582 -0.29948700  14.010000   ; qtot 0.215299
 2583         c3     87    ccc     C4   2583 -0.01321200  12.010000   ; qtot 0.202087
 2584         h1     87    ccc     H7   2584 0.08172200   1.008000   ; qtot 0.283809
 2585         h1     87    ccc     H8   2585 0.08172200   1.008000   ; qtot 0.365531
 2586         c3     87    ccc     C5   2586 -0.22180000  12.010000   ; qtot 0.143731
 2587         hc     87    ccc     H9   2587 0.09671800   1.008000   ; qtot 0.240449
 2588         hc     87    ccc    H10   2588 0.09671800   1.008000   ; qtot 0.337167
 2589          c     87    ccc     C6   2589 0.526324  12.010000   ; qtot 1.333694
 2590          o     87    ccc     O1   2590 -0.39142825  16.000000   ; qtot 0.637188
 2591         oh     87    ccc     O2   2591 -0.56822625  16.000000   ; qtot -0.203623
 2592         ho     87    ccc    H11   2592 0.4186155   1.008000   ; qtot 0.322452
 2593         c3     87    ccc     C7   2593 -0.01321200  12.010000   ; qtot 0.309240
 2594         h1     87    ccc    H12   2594 0.08172200   1.008000   ; qtot 0.390962
 2595         h1     87    ccc    H13   2595 0.08172200   1.008000   ; qtot 0.472684
 2596         c3     87    ccc     C8   2596 -0.22180000  12.010000   ; qtot 0.250884
 2597         hc     87    ccc    H14   2597 0.09671800   1.008000   ; qtot 0.347602
 2598         hc     87    ccc    H15   2598 0.09671800   1.008000   ; qtot 0.444320
 2599          c     87    ccc     C9   2599 0.526324  12.010000   ; qtot 1.440847
 2600          o     87    ccc     O3   2600 -0.39142825  16.000000   ; qtot 0.744341
 2601         oh     87    ccc     O4   2601 -0.56822625  16.000000   ; qtot -0.096470
 2602         ho     87    ccc    H16   2602 0.4186155   1.008000   ; qtot 0.429605
 2603         os     87    ccc     O5   2603 -0.42966500  16.000000   ; qtot -0.000060
; residue   88 ccc rtp ccc q 0.0
 2604         c3     88    ccc     C1   2604 0.50749700  12.010000   ; qtot 0.507437
 2605         h1     88    ccc     H1   2605 -0.02808400   1.008000   ; qtot 0.479353
 2606         h1     88    ccc     H2   2606 -0.02808400   1.008000   ; qtot 0.451269
 2607         c3     88    ccc     C2   2607 -0.15486000  12.010000   ; qtot 0.296409
 2608         hc     88    ccc     H3   2608 0.10266400   1.008000   ; qtot 0.399073
 2609         hc     88    ccc     H4   2609 0.10266400   1.008000   ; qtot 0.501737
 2610         c3     88    ccc     C3   2610 -0.15693500  12.010000   ; qtot 0.344802
 2611         h1     88    ccc     H5   2611 0.08499200   1.008000   ; qtot 0.429794
 2612         h1     88    ccc     H6   2612 0.08499200   1.008000   ; qtot 0.514786
 2613         n3     88    ccc     N1   2613 -0.29948700  14.010000   ; qtot 0.215299
 2614         c3     88    ccc     C4   2614 -0.01321200  12.010000   ; qtot 0.202087
 2615         h1     88    ccc     H7   2615 0.08172200   1.008000   ; qtot 0.283809
 2616         h1     88    ccc     H8   2616 0.08172200   1.008000   ; qtot 0.365531
 2617         c3     88    ccc     C5   2617 -0.22180000  12.010000   ; qtot 0.143731
 2618         hc     88    ccc     H9   2618 0.09671800   1.008000   ; qtot 0.240449
 2619         hc     88    ccc    H10   2619 0.09671800   1.008000   ; qtot 0.337167
 2620          c     88    ccc     C6   2620 0.526324  12.010000   ; qtot 1.333694
 2621          o     88    ccc     O1   2621 -0.39142825  16.000000   ; qtot 0.637188
 2622         oh     88    ccc     O2   2622 -0.56822625  16.000000   ; qtot -0.203623
 2623         ho     88    ccc    H11   2623 0.4186155   1.008000   ; qtot 0.322452
 2624         c3     88    ccc     C7   2624 -0.01321200  12.010000   ; qtot 0.309240
 2625         h1     88    ccc    H12   2625 0.08172200   1.008000   ; qtot 0.390962
 2626         h1     88    ccc    H13   2626 0.08172200   1.008000   ; qtot 0.472684
 2627         c3     88    ccc     C8   2627 -0.22180000  12.010000   ; qtot 0.250884
 2628         hc     88    ccc    H14   2628 0.09671800   1.008000   ; qtot 0.347602
 2629         hc     88    ccc    H15   2629 0.09671800   1.008000   ; qtot 0.444320
 2630          c     88    ccc     C9   2630 0.526324  12.010000   ; qtot 1.440847
 2631          o     88    ccc     O3   2631 -0.39142825  16.000000   ; qtot 0.744341
 2632         oh     88    ccc     O4   2632 -0.56822625  16.000000   ; qtot -0.096470
 2633         ho     88    ccc    H16   2633 0.4186155   1.008000   ; qtot 0.429605
 2634         os     88    ccc     O5   2634 -0.42966500  16.000000   ; qtot -0.000060
; residue   89 ccc rtp ccc q 0.0
 2635         c3     89    ccc     C1   2635 0.50749700  12.010000   ; qtot 0.507437
 2636         h1     89    ccc     H1   2636 -0.02808400   1.008000   ; qtot 0.479353
 2637         h1     89    ccc     H2   2637 -0.02808400   1.008000   ; qtot 0.451269
 2638         c3     89    ccc     C2   2638 -0.15486000  12.010000   ; qtot 0.296409
 2639         hc     89    ccc     H3   2639 0.10266400   1.008000   ; qtot 0.399073
 2640         hc     89    ccc     H4   2640 0.10266400   1.008000   ; qtot 0.501737
 2641         c3     89    ccc     C3   2641 -0.15693500  12.010000   ; qtot 0.344802
 2642         h1     89    ccc     H5   2642 0.08499200   1.008000   ; qtot 0.429794
 2643         h1     89    ccc     H6   2643 0.08499200   1.008000   ; qtot 0.514786
 2644         n3     89    ccc     N1   2644 -0.29948700  14.010000   ; qtot 0.215299
 2645         c3     89    ccc     C4   2645 -0.01321200  12.010000   ; qtot 0.202087
 2646         h1     89    ccc     H7   2646 0.08172200   1.008000   ; qtot 0.283809
 2647         h1     89    ccc     H8   2647 0.08172200   1.008000   ; qtot 0.365531
 2648         c3     89    ccc     C5   2648 -0.22180000  12.010000   ; qtot 0.143731
 2649         hc     89    ccc     H9   2649 0.09671800   1.008000   ; qtot 0.240449
 2650         hc     89    ccc    H10   2650 0.09671800   1.008000   ; qtot 0.337167
 2651          c     89    ccc     C6   2651 0.526324  12.010000   ; qtot 1.333694
 2652          o     89    ccc     O1   2652 -0.39142825  16.000000   ; qtot 0.637188
 2653         oh     89    ccc     O2   2653 -0.56822625  16.000000   ; qtot -0.203623
 2654         ho     89    ccc    H11   2654 0.4186155   1.008000   ; qtot 0.322452
 2655         c3     89    ccc     C7   2655 -0.01321200  12.010000   ; qtot 0.309240
 2656         h1     89    ccc    H12   2656 0.08172200   1.008000   ; qtot 0.390962
 2657         h1     89    ccc    H13   2657 0.08172200   1.008000   ; qtot 0.472684
 2658         c3     89    ccc     C8   2658 -0.22180000  12.010000   ; qtot 0.250884
 2659         hc     89    ccc    H14   2659 0.09671800   1.008000   ; qtot 0.347602
 2660         hc     89    ccc    H15   2660 0.09671800   1.008000   ; qtot 0.444320
 2661          c     89    ccc     C9   2661 0.526324  12.010000   ; qtot 1.440847
 2662          o     89    ccc     O3   2662 -0.39142825  16.000000   ; qtot 0.744341
 2663         oh     89    ccc     O4   2663 -0.56822625  16.000000   ; qtot -0.096470
 2664         ho     89    ccc    H16   2664 0.4186155   1.008000   ; qtot 0.429605
 2665         os     89    ccc     O5   2665 -0.42966500  16.000000   ; qtot -0.000060
; residue   90 ccc rtp ccc q 0.0
 2666         c3     90    ccc     C1   2666 0.50749700  12.010000   ; qtot 0.507437
 2667         h1     90    ccc     H1   2667 -0.02808400   1.008000   ; qtot 0.479353
 2668         h1     90    ccc     H2   2668 -0.02808400   1.008000   ; qtot 0.451269
 2669         c3     90    ccc     C2   2669 -0.15486000  12.010000   ; qtot 0.296409
 2670         hc     90    ccc     H3   2670 0.10266400   1.008000   ; qtot 0.399073
 2671         hc     90    ccc     H4   2671 0.10266400   1.008000   ; qtot 0.501737
 2672         c3     90    ccc     C3   2672 -0.15693500  12.010000   ; qtot 0.344802
 2673         h1     90    ccc     H5   2673 0.08499200   1.008000   ; qtot 0.429794
 2674         h1     90    ccc     H6   2674 0.08499200   1.008000   ; qtot 0.514786
 2675         n3     90    ccc     N1   2675 -0.29948700  14.010000   ; qtot 0.215299
 2676         c3     90    ccc     C4   2676 -0.01321200  12.010000   ; qtot 0.202087
 2677         h1     90    ccc     H7   2677 0.08172200   1.008000   ; qtot 0.283809
 2678         h1     90    ccc     H8   2678 0.08172200   1.008000   ; qtot 0.365531
 2679         c3     90    ccc     C5   2679 -0.22180000  12.010000   ; qtot 0.143731
 2680         hc     90    ccc     H9   2680 0.09671800   1.008000   ; qtot 0.240449
 2681         hc     90    ccc    H10   2681 0.09671800   1.008000   ; qtot 0.337167
 2682          c     90    ccc     C6   2682 0.526324  12.010000   ; qtot 1.333694
 2683          o     90    ccc     O1   2683 -0.39142825  16.000000   ; qtot 0.637188
 2684         oh     90    ccc     O2   2684 -0.56822625  16.000000   ; qtot -0.203623
 2685         ho     90    ccc    H11   2685 0.4186155   1.008000   ; qtot 0.322452
 2686         c3     90    ccc     C7   2686 -0.01321200  12.010000   ; qtot 0.309240
 2687         h1     90    ccc    H12   2687 0.08172200   1.008000   ; qtot 0.390962
 2688         h1     90    ccc    H13   2688 0.08172200   1.008000   ; qtot 0.472684
 2689         c3     90    ccc     C8   2689 -0.22180000  12.010000   ; qtot 0.250884
 2690         hc     90    ccc    H14   2690 0.09671800   1.008000   ; qtot 0.347602
 2691         hc     90    ccc    H15   2691 0.09671800   1.008000   ; qtot 0.444320
 2692          c     90    ccc     C9   2692 0.526324  12.010000   ; qtot 1.440847
 2693          o     90    ccc     O3   2693 -0.39142825  16.000000   ; qtot 0.744341
 2694         oh     90    ccc     O4   2694 -0.56822625  16.000000   ; qtot -0.096470
 2695         ho     90    ccc    H16   2695 0.4186155   1.008000   ; qtot 0.429605
 2696         os     90    ccc     O5   2696 -0.42966500  16.000000   ; qtot -0.000060
; residue   91 ccc rtp ccc q 0.0
 2697         c3     91    ccc     C1   2697 0.50749700  12.010000   ; qtot 0.507437
 2698         h1     91    ccc     H1   2698 -0.02808400   1.008000   ; qtot 0.479353
 2699         h1     91    ccc     H2   2699 -0.02808400   1.008000   ; qtot 0.451269
 2700         c3     91    ccc     C2   2700 -0.15486000  12.010000   ; qtot 0.296409
 2701         hc     91    ccc     H3   2701 0.10266400   1.008000   ; qtot 0.399073
 2702         hc     91    ccc     H4   2702 0.10266400   1.008000   ; qtot 0.501737
 2703         c3     91    ccc     C3   2703 -0.15693500  12.010000   ; qtot 0.344802
 2704         h1     91    ccc     H5   2704 0.08499200   1.008000   ; qtot 0.429794
 2705         h1     91    ccc     H6   2705 0.08499200   1.008000   ; qtot 0.514786
 2706         n3     91    ccc     N1   2706 -0.29948700  14.010000   ; qtot 0.215299
 2707         c3     91    ccc     C4   2707 -0.01321200  12.010000   ; qtot 0.202087
 2708         h1     91    ccc     H7   2708 0.08172200   1.008000   ; qtot 0.283809
 2709         h1     91    ccc     H8   2709 0.08172200   1.008000   ; qtot 0.365531
 2710         c3     91    ccc     C5   2710 -0.22180000  12.010000   ; qtot 0.143731
 2711         hc     91    ccc     H9   2711 0.09671800   1.008000   ; qtot 0.240449
 2712         hc     91    ccc    H10   2712 0.09671800   1.008000   ; qtot 0.337167
 2713          c     91    ccc     C6   2713 0.526324  12.010000   ; qtot 1.333694
 2714          o     91    ccc     O1   2714 -0.39142825  16.000000   ; qtot 0.637188
 2715         oh     91    ccc     O2   2715 -0.56822625  16.000000   ; qtot -0.203623
 2716         ho     91    ccc    H11   2716 0.4186155   1.008000   ; qtot 0.322452
 2717         c3     91    ccc     C7   2717 -0.01321200  12.010000   ; qtot 0.309240
 2718         h1     91    ccc    H12   2718 0.08172200   1.008000   ; qtot 0.390962
 2719         h1     91    ccc    H13   2719 0.08172200   1.008000   ; qtot 0.472684
 2720         c3     91    ccc     C8   2720 -0.22180000  12.010000   ; qtot 0.250884
 2721         hc     91    ccc    H14   2721 0.09671800   1.008000   ; qtot 0.347602
 2722         hc     91    ccc    H15   2722 0.09671800   1.008000   ; qtot 0.444320
 2723          c     91    ccc     C9   2723 0.526324  12.010000   ; qtot 1.440847
 2724          o     91    ccc     O3   2724 -0.39142825  16.000000   ; qtot 0.744341
 2725         oh     91    ccc     O4   2725 -0.56822625  16.000000   ; qtot -0.096470
 2726         ho     91    ccc    H16   2726 0.4186155   1.008000   ; qtot 0.429605
 2727         os     91    ccc     O5   2727 -0.42966500  16.000000   ; qtot -0.000060
; residue   92 ccc rtp ccc q 0.0
 2728         c3     92    ccc     C1   2728 0.50749700  12.010000   ; qtot 0.507437
 2729         h1     92    ccc     H1   2729 -0.02808400   1.008000   ; qtot 0.479353
 2730         h1     92    ccc     H2   2730 -0.02808400   1.008000   ; qtot 0.451269
 2731         c3     92    ccc     C2   2731 -0.15486000  12.010000   ; qtot 0.296409
 2732         hc     92    ccc     H3   2732 0.10266400   1.008000   ; qtot 0.399073
 2733         hc     92    ccc     H4   2733 0.10266400   1.008000   ; qtot 0.501737
 2734         c3     92    ccc     C3   2734 -0.15693500  12.010000   ; qtot 0.344802
 2735         h1     92    ccc     H5   2735 0.08499200   1.008000   ; qtot 0.429794
 2736         h1     92    ccc     H6   2736 0.08499200   1.008000   ; qtot 0.514786
 2737         n3     92    ccc     N1   2737 -0.29948700  14.010000   ; qtot 0.215299
 2738         c3     92    ccc     C4   2738 -0.01321200  12.010000   ; qtot 0.202087
 2739         h1     92    ccc     H7   2739 0.08172200   1.008000   ; qtot 0.283809
 2740         h1     92    ccc     H8   2740 0.08172200   1.008000   ; qtot 0.365531
 2741         c3     92    ccc     C5   2741 -0.22180000  12.010000   ; qtot 0.143731
 2742         hc     92    ccc     H9   2742 0.09671800   1.008000   ; qtot 0.240449
 2743         hc     92    ccc    H10   2743 0.09671800   1.008000   ; qtot 0.337167
 2744          c     92    ccc     C6   2744 0.526324  12.010000   ; qtot 1.333694
 2745          o     92    ccc     O1   2745 -0.39142825  16.000000   ; qtot 0.637188
 2746         oh     92    ccc     O2   2746 -0.56822625  16.000000   ; qtot -0.203623
 2747         ho     92    ccc    H11   2747 0.4186155   1.008000   ; qtot 0.322452
 2748         c3     92    ccc     C7   2748 -0.01321200  12.010000   ; qtot 0.309240
 2749         h1     92    ccc    H12   2749 0.08172200   1.008000   ; qtot 0.390962
 2750         h1     92    ccc    H13   2750 0.08172200   1.008000   ; qtot 0.472684
 2751         c3     92    ccc     C8   2751 -0.22180000  12.010000   ; qtot 0.250884
 2752         hc     92    ccc    H14   2752 0.09671800   1.008000   ; qtot 0.347602
 2753         hc     92    ccc    H15   2753 0.09671800   1.008000   ; qtot 0.444320
 2754          c     92    ccc     C9   2754 0.526324  12.010000   ; qtot 1.440847
 2755          o     92    ccc     O3   2755 -0.39142825  16.000000   ; qtot 0.744341
 2756         oh     92    ccc     O4   2756 -0.56822625  16.000000   ; qtot -0.096470
 2757         ho     92    ccc    H16   2757 0.4186155   1.008000   ; qtot 0.429605
 2758         os     92    ccc     O5   2758 -0.42966500  16.000000   ; qtot -0.000060
; residue   93 ccc rtp ccc q 0.0
 2759         c3     93    ccc     C1   2759 0.50749700  12.010000   ; qtot 0.507437
 2760         h1     93    ccc     H1   2760 -0.02808400   1.008000   ; qtot 0.479353
 2761         h1     93    ccc     H2   2761 -0.02808400   1.008000   ; qtot 0.451269
 2762         c3     93    ccc     C2   2762 -0.15486000  12.010000   ; qtot 0.296409
 2763         hc     93    ccc     H3   2763 0.10266400   1.008000   ; qtot 0.399073
 2764         hc     93    ccc     H4   2764 0.10266400   1.008000   ; qtot 0.501737
 2765         c3     93    ccc     C3   2765 -0.15693500  12.010000   ; qtot 0.344802
 2766         h1     93    ccc     H5   2766 0.08499200   1.008000   ; qtot 0.429794
 2767         h1     93    ccc     H6   2767 0.08499200   1.008000   ; qtot 0.514786
 2768         n3     93    ccc     N1   2768 -0.29948700  14.010000   ; qtot 0.215299
 2769         c3     93    ccc     C4   2769 -0.01321200  12.010000   ; qtot 0.202087
 2770         h1     93    ccc     H7   2770 0.08172200   1.008000   ; qtot 0.283809
 2771         h1     93    ccc     H8   2771 0.08172200   1.008000   ; qtot 0.365531
 2772         c3     93    ccc     C5   2772 -0.22180000  12.010000   ; qtot 0.143731
 2773         hc     93    ccc     H9   2773 0.09671800   1.008000   ; qtot 0.240449
 2774         hc     93    ccc    H10   2774 0.09671800   1.008000   ; qtot 0.337167
 2775          c     93    ccc     C6   2775 0.526324  12.010000   ; qtot 1.333694
 2776          o     93    ccc     O1   2776 -0.39142825  16.000000   ; qtot 0.637188
 2777         oh     93    ccc     O2   2777 -0.56822625  16.000000   ; qtot -0.203623
 2778         ho     93    ccc    H11   2778 0.4186155   1.008000   ; qtot 0.322452
 2779         c3     93    ccc     C7   2779 -0.01321200  12.010000   ; qtot 0.309240
 2780         h1     93    ccc    H12   2780 0.08172200   1.008000   ; qtot 0.390962
 2781         h1     93    ccc    H13   2781 0.08172200   1.008000   ; qtot 0.472684
 2782         c3     93    ccc     C8   2782 -0.22180000  12.010000   ; qtot 0.250884
 2783         hc     93    ccc    H14   2783 0.09671800   1.008000   ; qtot 0.347602
 2784         hc     93    ccc    H15   2784 0.09671800   1.008000   ; qtot 0.444320
 2785          c     93    ccc     C9   2785 0.526324  12.010000   ; qtot 1.440847
 2786          o     93    ccc     O3   2786 -0.39142825  16.000000   ; qtot 0.744341
 2787         oh     93    ccc     O4   2787 -0.56822625  16.000000   ; qtot -0.096470
 2788         ho     93    ccc    H16   2788 0.4186155   1.008000   ; qtot 0.429605
 2789         os     93    ccc     O5   2789 -0.42966500  16.000000   ; qtot -0.000060
; residue   94 ccc rtp ccc q 0.0
 2790         c3     94    ccc     C1   2790 0.50749700  12.010000   ; qtot 0.507437
 2791         h1     94    ccc     H1   2791 -0.02808400   1.008000   ; qtot 0.479353
 2792         h1     94    ccc     H2   2792 -0.02808400   1.008000   ; qtot 0.451269
 2793         c3     94    ccc     C2   2793 -0.15486000  12.010000   ; qtot 0.296409
 2794         hc     94    ccc     H3   2794 0.10266400   1.008000   ; qtot 0.399073
 2795         hc     94    ccc     H4   2795 0.10266400   1.008000   ; qtot 0.501737
 2796         c3     94    ccc     C3   2796 -0.15693500  12.010000   ; qtot 0.344802
 2797         h1     94    ccc     H5   2797 0.08499200   1.008000   ; qtot 0.429794
 2798         h1     94    ccc     H6   2798 0.08499200   1.008000   ; qtot 0.514786
 2799         n3     94    ccc     N1   2799 -0.29948700  14.010000   ; qtot 0.215299
 2800         c3     94    ccc     C4   2800 -0.01321200  12.010000   ; qtot 0.202087
 2801         h1     94    ccc     H7   2801 0.08172200   1.008000   ; qtot 0.283809
 2802         h1     94    ccc     H8   2802 0.08172200   1.008000   ; qtot 0.365531
 2803         c3     94    ccc     C5   2803 -0.22180000  12.010000   ; qtot 0.143731
 2804         hc     94    ccc     H9   2804 0.09671800   1.008000   ; qtot 0.240449
 2805         hc     94    ccc    H10   2805 0.09671800   1.008000   ; qtot 0.337167
 2806          c     94    ccc     C6   2806 0.526324  12.010000   ; qtot 1.333694
 2807          o     94    ccc     O1   2807 -0.39142825  16.000000   ; qtot 0.637188
 2808         oh     94    ccc     O2   2808 -0.56822625  16.000000   ; qtot -0.203623
 2809         ho     94    ccc    H11   2809 0.4186155   1.008000   ; qtot 0.322452
 2810         c3     94    ccc     C7   2810 -0.01321200  12.010000   ; qtot 0.309240
 2811         h1     94    ccc    H12   2811 0.08172200   1.008000   ; qtot 0.390962
 2812         h1     94    ccc    H13   2812 0.08172200   1.008000   ; qtot 0.472684
 2813         c3     94    ccc     C8   2813 -0.22180000  12.010000   ; qtot 0.250884
 2814         hc     94    ccc    H14   2814 0.09671800   1.008000   ; qtot 0.347602
 2815         hc     94    ccc    H15   2815 0.09671800   1.008000   ; qtot 0.444320
 2816          c     94    ccc     C9   2816 0.526324  12.010000   ; qtot 1.440847
 2817          o     94    ccc     O3   2817 -0.39142825  16.000000   ; qtot 0.744341
 2818         oh     94    ccc     O4   2818 -0.56822625  16.000000   ; qtot -0.096470
 2819         ho     94    ccc    H16   2819 0.4186155   1.008000   ; qtot 0.429605
 2820         os     94    ccc     O5   2820 -0.42966500  16.000000   ; qtot -0.000060
; residue   95 ccc rtp ccc q 0.0
 2821         c3     95    ccc     C1   2821 0.50749700  12.010000   ; qtot 0.507437
 2822         h1     95    ccc     H1   2822 -0.02808400   1.008000   ; qtot 0.479353
 2823         h1     95    ccc     H2   2823 -0.02808400   1.008000   ; qtot 0.451269
 2824         c3     95    ccc     C2   2824 -0.15486000  12.010000   ; qtot 0.296409
 2825         hc     95    ccc     H3   2825 0.10266400   1.008000   ; qtot 0.399073
 2826         hc     95    ccc     H4   2826 0.10266400   1.008000   ; qtot 0.501737
 2827         c3     95    ccc     C3   2827 -0.15693500  12.010000   ; qtot 0.344802
 2828         h1     95    ccc     H5   2828 0.08499200   1.008000   ; qtot 0.429794
 2829         h1     95    ccc     H6   2829 0.08499200   1.008000   ; qtot 0.514786
 2830         n3     95    ccc     N1   2830 -0.29948700  14.010000   ; qtot 0.215299
 2831         c3     95    ccc     C4   2831 -0.01321200  12.010000   ; qtot 0.202087
 2832         h1     95    ccc     H7   2832 0.08172200   1.008000   ; qtot 0.283809
 2833         h1     95    ccc     H8   2833 0.08172200   1.008000   ; qtot 0.365531
 2834         c3     95    ccc     C5   2834 -0.22180000  12.010000   ; qtot 0.143731
 2835         hc     95    ccc     H9   2835 0.09671800   1.008000   ; qtot 0.240449
 2836         hc     95    ccc    H10   2836 0.09671800   1.008000   ; qtot 0.337167
 2837          c     95    ccc     C6   2837 0.526324  12.010000   ; qtot 1.333694
 2838          o     95    ccc     O1   2838 -0.39142825  16.000000   ; qtot 0.637188
 2839         oh     95    ccc     O2   2839 -0.56822625  16.000000   ; qtot -0.203623
 2840         ho     95    ccc    H11   2840 0.4186155   1.008000   ; qtot 0.322452
 2841         c3     95    ccc     C7   2841 -0.01321200  12.010000   ; qtot 0.309240
 2842         h1     95    ccc    H12   2842 0.08172200   1.008000   ; qtot 0.390962
 2843         h1     95    ccc    H13   2843 0.08172200   1.008000   ; qtot 0.472684
 2844         c3     95    ccc     C8   2844 -0.22180000  12.010000   ; qtot 0.250884
 2845         hc     95    ccc    H14   2845 0.09671800   1.008000   ; qtot 0.347602
 2846         hc     95    ccc    H15   2846 0.09671800   1.008000   ; qtot 0.444320
 2847          c     95    ccc     C9   2847 0.526324  12.010000   ; qtot 1.440847
 2848          o     95    ccc     O3   2848 -0.39142825  16.000000   ; qtot 0.744341
 2849         oh     95    ccc     O4   2849 -0.56822625  16.000000   ; qtot -0.096470
 2850         ho     95    ccc    H16   2850 0.4186155   1.008000   ; qtot 0.429605
 2851         os     95    ccc     O5   2851 -0.42966500  16.000000   ; qtot -0.000060
; residue   96 ccc rtp ccc q 0.0
 2852         c3     96    ccc     C1   2852 0.50749700  12.010000   ; qtot 0.507437
 2853         h1     96    ccc     H1   2853 -0.02808400   1.008000   ; qtot 0.479353
 2854         h1     96    ccc     H2   2854 -0.02808400   1.008000   ; qtot 0.451269
 2855         c3     96    ccc     C2   2855 -0.15486000  12.010000   ; qtot 0.296409
 2856         hc     96    ccc     H3   2856 0.10266400   1.008000   ; qtot 0.399073
 2857         hc     96    ccc     H4   2857 0.10266400   1.008000   ; qtot 0.501737
 2858         c3     96    ccc     C3   2858 -0.15693500  12.010000   ; qtot 0.344802
 2859         h1     96    ccc     H5   2859 0.08499200   1.008000   ; qtot 0.429794
 2860         h1     96    ccc     H6   2860 0.08499200   1.008000   ; qtot 0.514786
 2861         n3     96    ccc     N1   2861 -0.29948700  14.010000   ; qtot 0.215299
 2862         c3     96    ccc     C4   2862 -0.01321200  12.010000   ; qtot 0.202087
 2863         h1     96    ccc     H7   2863 0.08172200   1.008000   ; qtot 0.283809
 2864         h1     96    ccc     H8   2864 0.08172200   1.008000   ; qtot 0.365531
 2865         c3     96    ccc     C5   2865 -0.22180000  12.010000   ; qtot 0.143731
 2866         hc     96    ccc     H9   2866 0.09671800   1.008000   ; qtot 0.240449
 2867         hc     96    ccc    H10   2867 0.09671800   1.008000   ; qtot 0.337167
 2868          c     96    ccc     C6   2868 0.526324  12.010000   ; qtot 1.333694
 2869          o     96    ccc     O1   2869 -0.39142825  16.000000   ; qtot 0.637188
 2870         oh     96    ccc     O2   2870 -0.56822625  16.000000   ; qtot -0.203623
 2871         ho     96    ccc    H11   2871 0.4186155   1.008000   ; qtot 0.322452
 2872         c3     96    ccc     C7   2872 -0.01321200  12.010000   ; qtot 0.309240
 2873         h1     96    ccc    H12   2873 0.08172200   1.008000   ; qtot 0.390962
 2874         h1     96    ccc    H13   2874 0.08172200   1.008000   ; qtot 0.472684
 2875         c3     96    ccc     C8   2875 -0.22180000  12.010000   ; qtot 0.250884
 2876         hc     96    ccc    H14   2876 0.09671800   1.008000   ; qtot 0.347602
 2877         hc     96    ccc    H15   2877 0.09671800   1.008000   ; qtot 0.444320
 2878          c     96    ccc     C9   2878 0.526324  12.010000   ; qtot 1.440847
 2879          o     96    ccc     O3   2879 -0.39142825  16.000000   ; qtot 0.744341
 2880         oh     96    ccc     O4   2880 -0.56822625  16.000000   ; qtot -0.096470
 2881         ho     96    ccc    H16   2881 0.4186155   1.008000   ; qtot 0.429605
 2882         os     96    ccc     O5   2882 -0.42966500  16.000000   ; qtot -0.000060
; residue   97 ccc rtp ccc q 0.0
 2883         c3     97    ccc     C1   2883 0.50749700  12.010000   ; qtot 0.507437
 2884         h1     97    ccc     H1   2884 -0.02808400   1.008000   ; qtot 0.479353
 2885         h1     97    ccc     H2   2885 -0.02808400   1.008000   ; qtot 0.451269
 2886         c3     97    ccc     C2   2886 -0.15486000  12.010000   ; qtot 0.296409
 2887         hc     97    ccc     H3   2887 0.10266400   1.008000   ; qtot 0.399073
 2888         hc     97    ccc     H4   2888 0.10266400   1.008000   ; qtot 0.501737
 2889         c3     97    ccc     C3   2889 -0.15693500  12.010000   ; qtot 0.344802
 2890         h1     97    ccc     H5   2890 0.08499200   1.008000   ; qtot 0.429794
 2891         h1     97    ccc     H6   2891 0.08499200   1.008000   ; qtot 0.514786
 2892         n3     97    ccc     N1   2892 -0.29948700  14.010000   ; qtot 0.215299
 2893         c3     97    ccc     C4   2893 -0.01321200  12.010000   ; qtot 0.202087
 2894         h1     97    ccc     H7   2894 0.08172200   1.008000   ; qtot 0.283809
 2895         h1     97    ccc     H8   2895 0.08172200   1.008000   ; qtot 0.365531
 2896         c3     97    ccc     C5   2896 -0.22180000  12.010000   ; qtot 0.143731
 2897         hc     97    ccc     H9   2897 0.09671800   1.008000   ; qtot 0.240449
 2898         hc     97    ccc    H10   2898 0.09671800   1.008000   ; qtot 0.337167
 2899          c     97    ccc     C6   2899 0.526324  12.010000   ; qtot 1.333694
 2900          o     97    ccc     O1   2900 -0.39142825  16.000000   ; qtot 0.637188
 2901         oh     97    ccc     O2   2901 -0.56822625  16.000000   ; qtot -0.203623
 2902         ho     97    ccc    H11   2902 0.4186155   1.008000   ; qtot 0.322452
 2903         c3     97    ccc     C7   2903 -0.01321200  12.010000   ; qtot 0.309240
 2904         h1     97    ccc    H12   2904 0.08172200   1.008000   ; qtot 0.390962
 2905         h1     97    ccc    H13   2905 0.08172200   1.008000   ; qtot 0.472684
 2906         c3     97    ccc     C8   2906 -0.22180000  12.010000   ; qtot 0.250884
 2907         hc     97    ccc    H14   2907 0.09671800   1.008000   ; qtot 0.347602
 2908         hc     97    ccc    H15   2908 0.09671800   1.008000   ; qtot 0.444320
 2909          c     97    ccc     C9   2909 0.526324  12.010000   ; qtot 1.440847
 2910          o     97    ccc     O3   2910 -0.39142825  16.000000   ; qtot 0.744341
 2911         oh     97    ccc     O4   2911 -0.56822625  16.000000   ; qtot -0.096470
 2912         ho     97    ccc    H16   2912 0.4186155   1.008000   ; qtot 0.429605
 2913         os     97    ccc     O5   2913 -0.42966500  16.000000   ; qtot -0.000060
; residue   98 ccc rtp ccc q 0.0
 2914         c3     98    ccc     C1   2914 0.50749700  12.010000   ; qtot 0.507437
 2915         h1     98    ccc     H1   2915 -0.02808400   1.008000   ; qtot 0.479353
 2916         h1     98    ccc     H2   2916 -0.02808400   1.008000   ; qtot 0.451269
 2917         c3     98    ccc     C2   2917 -0.15486000  12.010000   ; qtot 0.296409
 2918         hc     98    ccc     H3   2918 0.10266400   1.008000   ; qtot 0.399073
 2919         hc     98    ccc     H4   2919 0.10266400   1.008000   ; qtot 0.501737
 2920         c3     98    ccc     C3   2920 -0.15693500  12.010000   ; qtot 0.344802
 2921         h1     98    ccc     H5   2921 0.08499200   1.008000   ; qtot 0.429794
 2922         h1     98    ccc     H6   2922 0.08499200   1.008000   ; qtot 0.514786
 2923         n3     98    ccc     N1   2923 -0.29948700  14.010000   ; qtot 0.215299
 2924         c3     98    ccc     C4   2924 -0.01321200  12.010000   ; qtot 0.202087
 2925         h1     98    ccc     H7   2925 0.08172200   1.008000   ; qtot 0.283809
 2926         h1     98    ccc     H8   2926 0.08172200   1.008000   ; qtot 0.365531
 2927         c3     98    ccc     C5   2927 -0.22180000  12.010000   ; qtot 0.143731
 2928         hc     98    ccc     H9   2928 0.09671800   1.008000   ; qtot 0.240449
 2929         hc     98    ccc    H10   2929 0.09671800   1.008000   ; qtot 0.337167
 2930          c     98    ccc     C6   2930 0.526324  12.010000   ; qtot 1.333694
 2931          o     98    ccc     O1   2931 -0.39142825  16.000000   ; qtot 0.637188
 2932         oh     98    ccc     O2   2932 -0.56822625  16.000000   ; qtot -0.203623
 2933         ho     98    ccc    H11   2933 0.4186155   1.008000   ; qtot 0.322452
 2934         c3     98    ccc     C7   2934 -0.01321200  12.010000   ; qtot 0.309240
 2935         h1     98    ccc    H12   2935 0.08172200   1.008000   ; qtot 0.390962
 2936         h1     98    ccc    H13   2936 0.08172200   1.008000   ; qtot 0.472684
 2937         c3     98    ccc     C8   2937 -0.22180000  12.010000   ; qtot 0.250884
 2938         hc     98    ccc    H14   2938 0.09671800   1.008000   ; qtot 0.347602
 2939         hc     98    ccc    H15   2939 0.09671800   1.008000   ; qtot 0.444320
 2940          c     98    ccc     C9   2940 0.526324  12.010000   ; qtot 1.440847
 2941          o     98    ccc     O3   2941 -0.39142825  16.000000   ; qtot 0.744341
 2942         oh     98    ccc     O4   2942 -0.56822625  16.000000   ; qtot -0.096470
 2943         ho     98    ccc    H16   2943 0.4186155   1.008000   ; qtot 0.429605
 2944         os     98    ccc     O5   2944 -0.42966500  16.000000   ; qtot -0.000060
; residue   99 ccc rtp ccc q 0.0
 2945         c3     99    ccc     C1   2945 0.50749700  12.010000   ; qtot 0.507437
 2946         h1     99    ccc     H1   2946 -0.02808400   1.008000   ; qtot 0.479353
 2947         h1     99    ccc     H2   2947 -0.02808400   1.008000   ; qtot 0.451269
 2948         c3     99    ccc     C2   2948 -0.15486000  12.010000   ; qtot 0.296409
 2949         hc     99    ccc     H3   2949 0.10266400   1.008000   ; qtot 0.399073
 2950         hc     99    ccc     H4   2950 0.10266400   1.008000   ; qtot 0.501737
 2951         c3     99    ccc     C3   2951 -0.15693500  12.010000   ; qtot 0.344802
 2952         h1     99    ccc     H5   2952 0.08499200   1.008000   ; qtot 0.429794
 2953         h1     99    ccc     H6   2953 0.08499200   1.008000   ; qtot 0.514786
 2954         n3     99    ccc     N1   2954 -0.29948700  14.010000   ; qtot 0.215299
 2955         c3     99    ccc     C4   2955 -0.01321200  12.010000   ; qtot 0.202087
 2956         h1     99    ccc     H7   2956 0.08172200   1.008000   ; qtot 0.283809
 2957         h1     99    ccc     H8   2957 0.08172200   1.008000   ; qtot 0.365531
 2958         c3     99    ccc     C5   2958 -0.22180000  12.010000   ; qtot 0.143731
 2959         hc     99    ccc     H9   2959 0.09671800   1.008000   ; qtot 0.240449
 2960         hc     99    ccc    H10   2960 0.09671800   1.008000   ; qtot 0.337167
 2961          c     99    ccc     C6   2961 0.526324  12.010000   ; qtot 1.333694
 2962          o     99    ccc     O1   2962 -0.39142825  16.000000   ; qtot 0.637188
 2963         oh     99    ccc     O2   2963 -0.56822625  16.000000   ; qtot -0.203623
 2964         ho     99    ccc    H11   2964 0.4186155   1.008000   ; qtot 0.322452
 2965         c3     99    ccc     C7   2965 -0.01321200  12.010000   ; qtot 0.309240
 2966         h1     99    ccc    H12   2966 0.08172200   1.008000   ; qtot 0.390962
 2967         h1     99    ccc    H13   2967 0.08172200   1.008000   ; qtot 0.472684
 2968         c3     99    ccc     C8   2968 -0.22180000  12.010000   ; qtot 0.250884
 2969         hc     99    ccc    H14   2969 0.09671800   1.008000   ; qtot 0.347602
 2970         hc     99    ccc    H15   2970 0.09671800   1.008000   ; qtot 0.444320
 2971          c     99    ccc     C9   2971 0.526324  12.010000   ; qtot 1.440847
 2972          o     99    ccc     O3   2972 -0.39142825  16.000000   ; qtot 0.744341
 2973         oh     99    ccc     O4   2973 -0.56822625  16.000000   ; qtot -0.096470
 2974         ho     99    ccc    H16   2974 0.4186155   1.008000   ; qtot 0.429605
 2975         os     99    ccc     O5   2975 -0.42966500  16.000000   ; qtot -0.000060
; residue  100 ccc rtp ccc q 0.0
 2976         c3    100    ccc     C1   2976 0.50749700  12.010000   ; qtot 0.507437
 2977         h1    100    ccc     H1   2977 -0.02808400   1.008000   ; qtot 0.479353
 2978         h1    100    ccc     H2   2978 -0.02808400   1.008000   ; qtot 0.451269
 2979         c3    100    ccc     C2   2979 -0.15486000  12.010000   ; qtot 0.296409
 2980         hc    100    ccc     H3   2980 0.10266400   1.008000   ; qtot 0.399073
 2981         hc    100    ccc     H4   2981 0.10266400   1.008000   ; qtot 0.501737
 2982         c3    100    ccc     C3   2982 -0.15693500  12.010000   ; qtot 0.344802
 2983         h1    100    ccc     H5   2983 0.08499200   1.008000   ; qtot 0.429794
 2984         h1    100    ccc     H6   2984 0.08499200   1.008000   ; qtot 0.514786
 2985         n3    100    ccc     N1   2985 -0.29948700  14.010000   ; qtot 0.215299
 2986         c3    100    ccc     C4   2986 -0.01321200  12.010000   ; qtot 0.202087
 2987         h1    100    ccc     H7   2987 0.08172200   1.008000   ; qtot 0.283809
 2988         h1    100    ccc     H8   2988 0.08172200   1.008000   ; qtot 0.365531
 2989         c3    100    ccc     C5   2989 -0.22180000  12.010000   ; qtot 0.143731
 2990         hc    100    ccc     H9   2990 0.09671800   1.008000   ; qtot 0.240449
 2991         hc    100    ccc    H10   2991 0.09671800   1.008000   ; qtot 0.337167
 2992          c    100    ccc     C6   2992 0.526324  12.010000   ; qtot 1.333694
 2993          o    100    ccc     O1   2993 -0.39142825  16.000000   ; qtot 0.637188
 2994         oh    100    ccc     O2   2994 -0.56822625  16.000000   ; qtot -0.203623
 2995         ho    100    ccc    H11   2995 0.4186155   1.008000   ; qtot 0.322452
 2996         c3    100    ccc     C7   2996 -0.01321200  12.010000   ; qtot 0.309240
 2997         h1    100    ccc    H12   2997 0.08172200   1.008000   ; qtot 0.390962
 2998         h1    100    ccc    H13   2998 0.08172200   1.008000   ; qtot 0.472684
 2999         c3    100    ccc     C8   2999 -0.22180000  12.010000   ; qtot 0.250884
 3000         hc    100    ccc    H14   3000 0.09671800   1.008000   ; qtot 0.347602
 3001         hc    100    ccc    H15   3001 0.09671800   1.008000   ; qtot 0.444320
 3002          c    100    ccc     C9   3002 0.526324  12.010000   ; qtot 1.440847
 3003          o    100    ccc     O3   3003 -0.39142825  16.000000   ; qtot 0.744341
 3004         oh    100    ccc     O4   3004 -0.56822625  16.000000   ; qtot -0.096470
 3005         ho    100    ccc    H16   3005 0.4186155   1.008000   ; qtot 0.429605
 3006         os    100    ccc     O5   3006 -0.42966500  16.000000   ; qtot -0.000060
; residue  101 ccc rtp ccc q 0.0
 3007         c3    101    ccc     C1   3007 0.50749700  12.010000   ; qtot 0.507437
 3008         h1    101    ccc     H1   3008 -0.02808400   1.008000   ; qtot 0.479353
 3009         h1    101    ccc     H2   3009 -0.02808400   1.008000   ; qtot 0.451269
 3010         c3    101    ccc     C2   3010 -0.15486000  12.010000   ; qtot 0.296409
 3011         hc    101    ccc     H3   3011 0.10266400   1.008000   ; qtot 0.399073
 3012         hc    101    ccc     H4   3012 0.10266400   1.008000   ; qtot 0.501737
 3013         c3    101    ccc     C3   3013 -0.15693500  12.010000   ; qtot 0.344802
 3014         h1    101    ccc     H5   3014 0.08499200   1.008000   ; qtot 0.429794
 3015         h1    101    ccc     H6   3015 0.08499200   1.008000   ; qtot 0.514786
 3016         n3    101    ccc     N1   3016 -0.29948700  14.010000   ; qtot 0.215299
 3017         c3    101    ccc     C4   3017 -0.01321200  12.010000   ; qtot 0.202087
 3018         h1    101    ccc     H7   3018 0.08172200   1.008000   ; qtot 0.283809
 3019         h1    101    ccc     H8   3019 0.08172200   1.008000   ; qtot 0.365531
 3020         c3    101    ccc     C5   3020 -0.22180000  12.010000   ; qtot 0.143731
 3021         hc    101    ccc     H9   3021 0.09671800   1.008000   ; qtot 0.240449
 3022         hc    101    ccc    H10   3022 0.09671800   1.008000   ; qtot 0.337167
 3023          c    101    ccc     C6   3023 0.526324  12.010000   ; qtot 1.333694
 3024          o    101    ccc     O1   3024 -0.39142825  16.000000   ; qtot 0.637188
 3025         oh    101    ccc     O2   3025 -0.56822625  16.000000   ; qtot -0.203623
 3026         ho    101    ccc    H11   3026 0.4186155   1.008000   ; qtot 0.322452
 3027         c3    101    ccc     C7   3027 -0.01321200  12.010000   ; qtot 0.309240
 3028         h1    101    ccc    H12   3028 0.08172200   1.008000   ; qtot 0.390962
 3029         h1    101    ccc    H13   3029 0.08172200   1.008000   ; qtot 0.472684
 3030         c3    101    ccc     C8   3030 -0.22180000  12.010000   ; qtot 0.250884
 3031         hc    101    ccc    H14   3031 0.09671800   1.008000   ; qtot 0.347602
 3032         hc    101    ccc    H15   3032 0.09671800   1.008000   ; qtot 0.444320
 3033          c    101    ccc     C9   3033 0.526324  12.010000   ; qtot 1.440847
 3034          o    101    ccc     O3   3034 -0.39142825  16.000000   ; qtot 0.744341
 3035         oh    101    ccc     O4   3035 -0.56822625  16.000000   ; qtot -0.096470
 3036         ho    101    ccc    H16   3036 0.4186155   1.008000   ; qtot 0.429605
 3037         os    101    ccc     O5   3037 -0.42966500  16.000000   ; qtot -0.000060
; residue  102 ccc rtp ccc q 0.0
 3038         c3    102    ccc     C1   3038 0.50749700  12.010000   ; qtot 0.507437
 3039         h1    102    ccc     H1   3039 -0.02808400   1.008000   ; qtot 0.479353
 3040         h1    102    ccc     H2   3040 -0.02808400   1.008000   ; qtot 0.451269
 3041         c3    102    ccc     C2   3041 -0.15486000  12.010000   ; qtot 0.296409
 3042         hc    102    ccc     H3   3042 0.10266400   1.008000   ; qtot 0.399073
 3043         hc    102    ccc     H4   3043 0.10266400   1.008000   ; qtot 0.501737
 3044         c3    102    ccc     C3   3044 -0.15693500  12.010000   ; qtot 0.344802
 3045         h1    102    ccc     H5   3045 0.08499200   1.008000   ; qtot 0.429794
 3046         h1    102    ccc     H6   3046 0.08499200   1.008000   ; qtot 0.514786
 3047         n3    102    ccc     N1   3047 -0.29948700  14.010000   ; qtot 0.215299
 3048         c3    102    ccc     C4   3048 -0.01321200  12.010000   ; qtot 0.202087
 3049         h1    102    ccc     H7   3049 0.08172200   1.008000   ; qtot 0.283809
 3050         h1    102    ccc     H8   3050 0.08172200   1.008000   ; qtot 0.365531
 3051         c3    102    ccc     C5   3051 -0.22180000  12.010000   ; qtot 0.143731
 3052         hc    102    ccc     H9   3052 0.09671800   1.008000   ; qtot 0.240449
 3053         hc    102    ccc    H10   3053 0.09671800   1.008000   ; qtot 0.337167
 3054          c    102    ccc     C6   3054 0.526324  12.010000   ; qtot 1.333694
 3055          o    102    ccc     O1   3055 -0.39142825  16.000000   ; qtot 0.637188
 3056         oh    102    ccc     O2   3056 -0.56822625  16.000000   ; qtot -0.203623
 3057         ho    102    ccc    H11   3057 0.4186155   1.008000   ; qtot 0.322452
 3058         c3    102    ccc     C7   3058 -0.01321200  12.010000   ; qtot 0.309240
 3059         h1    102    ccc    H12   3059 0.08172200   1.008000   ; qtot 0.390962
 3060         h1    102    ccc    H13   3060 0.08172200   1.008000   ; qtot 0.472684
 3061         c3    102    ccc     C8   3061 -0.22180000  12.010000   ; qtot 0.250884
 3062         hc    102    ccc    H14   3062 0.09671800   1.008000   ; qtot 0.347602
 3063         hc    102    ccc    H15   3063 0.09671800   1.008000   ; qtot 0.444320
 3064          c    102    ccc     C9   3064 0.526324  12.010000   ; qtot 1.440847
 3065          o    102    ccc     O3   3065 -0.39142825  16.000000   ; qtot 0.744341
 3066         oh    102    ccc     O4   3066 -0.56822625  16.000000   ; qtot -0.096470
 3067         ho    102    ccc    H16   3067 0.4186155   1.008000   ; qtot 0.429605
 3068         os    102    ccc     O5   3068 -0.42966500  16.000000   ; qtot -0.000060
; residue  103 ccc rtp ccc q 0.0
 3069         c3    103    ccc     C1   3069 0.50749700  12.010000   ; qtot 0.507437
 3070         h1    103    ccc     H1   3070 -0.02808400   1.008000   ; qtot 0.479353
 3071         h1    103    ccc     H2   3071 -0.02808400   1.008000   ; qtot 0.451269
 3072         c3    103    ccc     C2   3072 -0.15486000  12.010000   ; qtot 0.296409
 3073         hc    103    ccc     H3   3073 0.10266400   1.008000   ; qtot 0.399073
 3074         hc    103    ccc     H4   3074 0.10266400   1.008000   ; qtot 0.501737
 3075         c3    103    ccc     C3   3075 -0.15693500  12.010000   ; qtot 0.344802
 3076         h1    103    ccc     H5   3076 0.08499200   1.008000   ; qtot 0.429794
 3077         h1    103    ccc     H6   3077 0.08499200   1.008000   ; qtot 0.514786
 3078         n3    103    ccc     N1   3078 -0.29948700  14.010000   ; qtot 0.215299
 3079         c3    103    ccc     C4   3079 -0.01321200  12.010000   ; qtot 0.202087
 3080         h1    103    ccc     H7   3080 0.08172200   1.008000   ; qtot 0.283809
 3081         h1    103    ccc     H8   3081 0.08172200   1.008000   ; qtot 0.365531
 3082         c3    103    ccc     C5   3082 -0.22180000  12.010000   ; qtot 0.143731
 3083         hc    103    ccc     H9   3083 0.09671800   1.008000   ; qtot 0.240449
 3084         hc    103    ccc    H10   3084 0.09671800   1.008000   ; qtot 0.337167
 3085          c    103    ccc     C6   3085 0.526324  12.010000   ; qtot 1.333694
 3086          o    103    ccc     O1   3086 -0.39142825  16.000000   ; qtot 0.637188
 3087         oh    103    ccc     O2   3087 -0.56822625  16.000000   ; qtot -0.203623
 3088         ho    103    ccc    H11   3088 0.4186155   1.008000   ; qtot 0.322452
 3089         c3    103    ccc     C7   3089 -0.01321200  12.010000   ; qtot 0.309240
 3090         h1    103    ccc    H12   3090 0.08172200   1.008000   ; qtot 0.390962
 3091         h1    103    ccc    H13   3091 0.08172200   1.008000   ; qtot 0.472684
 3092         c3    103    ccc     C8   3092 -0.22180000  12.010000   ; qtot 0.250884
 3093         hc    103    ccc    H14   3093 0.09671800   1.008000   ; qtot 0.347602
 3094         hc    103    ccc    H15   3094 0.09671800   1.008000   ; qtot 0.444320
 3095          c    103    ccc     C9   3095 0.526324  12.010000   ; qtot 1.440847
 3096          o    103    ccc     O3   3096 -0.39142825  16.000000   ; qtot 0.744341
 3097         oh    103    ccc     O4   3097 -0.56822625  16.000000   ; qtot -0.096470
 3098         ho    103    ccc    H16   3098 0.4186155   1.008000   ; qtot 0.429605
 3099         os    103    ccc     O5   3099 -0.42966500  16.000000   ; qtot -0.000060
; residue  104 ccc rtp ccc q 0.0
 3100         c3    104    ccc     C1   3100 0.50749700  12.010000   ; qtot 0.507437
 3101         h1    104    ccc     H1   3101 -0.02808400   1.008000   ; qtot 0.479353
 3102         h1    104    ccc     H2   3102 -0.02808400   1.008000   ; qtot 0.451269
 3103         c3    104    ccc     C2   3103 -0.15486000  12.010000   ; qtot 0.296409
 3104         hc    104    ccc     H3   3104 0.10266400   1.008000   ; qtot 0.399073
 3105         hc    104    ccc     H4   3105 0.10266400   1.008000   ; qtot 0.501737
 3106         c3    104    ccc     C3   3106 -0.15693500  12.010000   ; qtot 0.344802
 3107         h1    104    ccc     H5   3107 0.08499200   1.008000   ; qtot 0.429794
 3108         h1    104    ccc     H6   3108 0.08499200   1.008000   ; qtot 0.514786
 3109         n3    104    ccc     N1   3109 -0.29948700  14.010000   ; qtot 0.215299
 3110         c3    104    ccc     C4   3110 -0.01321200  12.010000   ; qtot 0.202087
 3111         h1    104    ccc     H7   3111 0.08172200   1.008000   ; qtot 0.283809
 3112         h1    104    ccc     H8   3112 0.08172200   1.008000   ; qtot 0.365531
 3113         c3    104    ccc     C5   3113 -0.22180000  12.010000   ; qtot 0.143731
 3114         hc    104    ccc     H9   3114 0.09671800   1.008000   ; qtot 0.240449
 3115         hc    104    ccc    H10   3115 0.09671800   1.008000   ; qtot 0.337167
 3116          c    104    ccc     C6   3116 0.526324  12.010000   ; qtot 1.333694
 3117          o    104    ccc     O1   3117 -0.39142825  16.000000   ; qtot 0.637188
 3118         oh    104    ccc     O2   3118 -0.56822625  16.000000   ; qtot -0.203623
 3119         ho    104    ccc    H11   3119 0.4186155   1.008000   ; qtot 0.322452
 3120         c3    104    ccc     C7   3120 -0.01321200  12.010000   ; qtot 0.309240
 3121         h1    104    ccc    H12   3121 0.08172200   1.008000   ; qtot 0.390962
 3122         h1    104    ccc    H13   3122 0.08172200   1.008000   ; qtot 0.472684
 3123         c3    104    ccc     C8   3123 -0.22180000  12.010000   ; qtot 0.250884
 3124         hc    104    ccc    H14   3124 0.09671800   1.008000   ; qtot 0.347602
 3125         hc    104    ccc    H15   3125 0.09671800   1.008000   ; qtot 0.444320
 3126          c    104    ccc     C9   3126 0.526324  12.010000   ; qtot 1.440847
 3127          o    104    ccc     O3   3127 -0.39142825  16.000000   ; qtot 0.744341
 3128         oh    104    ccc     O4   3128 -0.56822625  16.000000   ; qtot -0.096470
 3129         ho    104    ccc    H16   3129 0.4186155   1.008000   ; qtot 0.429605
 3130         os    104    ccc     O5   3130 -0.42966500  16.000000   ; qtot -0.000060
; residue  105 ccc rtp ccc q 0.0
 3131         c3    105    ccc     C1   3131 0.50749700  12.010000   ; qtot 0.507437
 3132         h1    105    ccc     H1   3132 -0.02808400   1.008000   ; qtot 0.479353
 3133         h1    105    ccc     H2   3133 -0.02808400   1.008000   ; qtot 0.451269
 3134         c3    105    ccc     C2   3134 -0.15486000  12.010000   ; qtot 0.296409
 3135         hc    105    ccc     H3   3135 0.10266400   1.008000   ; qtot 0.399073
 3136         hc    105    ccc     H4   3136 0.10266400   1.008000   ; qtot 0.501737
 3137         c3    105    ccc     C3   3137 -0.15693500  12.010000   ; qtot 0.344802
 3138         h1    105    ccc     H5   3138 0.08499200   1.008000   ; qtot 0.429794
 3139         h1    105    ccc     H6   3139 0.08499200   1.008000   ; qtot 0.514786
 3140         n3    105    ccc     N1   3140 -0.29948700  14.010000   ; qtot 0.215299
 3141         c3    105    ccc     C4   3141 -0.01321200  12.010000   ; qtot 0.202087
 3142         h1    105    ccc     H7   3142 0.08172200   1.008000   ; qtot 0.283809
 3143         h1    105    ccc     H8   3143 0.08172200   1.008000   ; qtot 0.365531
 3144         c3    105    ccc     C5   3144 -0.22180000  12.010000   ; qtot 0.143731
 3145         hc    105    ccc     H9   3145 0.09671800   1.008000   ; qtot 0.240449
 3146         hc    105    ccc    H10   3146 0.09671800   1.008000   ; qtot 0.337167
 3147          c    105    ccc     C6   3147 0.526324  12.010000   ; qtot 1.333694
 3148          o    105    ccc     O1   3148 -0.39142825  16.000000   ; qtot 0.637188
 3149         oh    105    ccc     O2   3149 -0.56822625  16.000000   ; qtot -0.203623
 3150         ho    105    ccc    H11   3150 0.4186155   1.008000   ; qtot 0.322452
 3151         c3    105    ccc     C7   3151 -0.01321200  12.010000   ; qtot 0.309240
 3152         h1    105    ccc    H12   3152 0.08172200   1.008000   ; qtot 0.390962
 3153         h1    105    ccc    H13   3153 0.08172200   1.008000   ; qtot 0.472684
 3154         c3    105    ccc     C8   3154 -0.22180000  12.010000   ; qtot 0.250884
 3155         hc    105    ccc    H14   3155 0.09671800   1.008000   ; qtot 0.347602
 3156         hc    105    ccc    H15   3156 0.09671800   1.008000   ; qtot 0.444320
 3157          c    105    ccc     C9   3157 0.526324  12.010000   ; qtot 1.440847
 3158          o    105    ccc     O3   3158 -0.39142825  16.000000   ; qtot 0.744341
 3159         oh    105    ccc     O4   3159 -0.56822625  16.000000   ; qtot -0.096470
 3160         ho    105    ccc    H16   3160 0.4186155   1.008000   ; qtot 0.429605
 3161         os    105    ccc     O5   3161 -0.42966500  16.000000   ; qtot -0.000060
; residue  106 ccc rtp ccc q 0.0
 3162         c3    106    ccc     C1   3162 0.50749700  12.010000   ; qtot 0.507437
 3163         h1    106    ccc     H1   3163 -0.02808400   1.008000   ; qtot 0.479353
 3164         h1    106    ccc     H2   3164 -0.02808400   1.008000   ; qtot 0.451269
 3165         c3    106    ccc     C2   3165 -0.15486000  12.010000   ; qtot 0.296409
 3166         hc    106    ccc     H3   3166 0.10266400   1.008000   ; qtot 0.399073
 3167         hc    106    ccc     H4   3167 0.10266400   1.008000   ; qtot 0.501737
 3168         c3    106    ccc     C3   3168 -0.15693500  12.010000   ; qtot 0.344802
 3169         h1    106    ccc     H5   3169 0.08499200   1.008000   ; qtot 0.429794
 3170         h1    106    ccc     H6   3170 0.08499200   1.008000   ; qtot 0.514786
 3171         n3    106    ccc     N1   3171 -0.29948700  14.010000   ; qtot 0.215299
 3172         c3    106    ccc     C4   3172 -0.01321200  12.010000   ; qtot 0.202087
 3173         h1    106    ccc     H7   3173 0.08172200   1.008000   ; qtot 0.283809
 3174         h1    106    ccc     H8   3174 0.08172200   1.008000   ; qtot 0.365531
 3175         c3    106    ccc     C5   3175 -0.22180000  12.010000   ; qtot 0.143731
 3176         hc    106    ccc     H9   3176 0.09671800   1.008000   ; qtot 0.240449
 3177         hc    106    ccc    H10   3177 0.09671800   1.008000   ; qtot 0.337167
 3178          c    106    ccc     C6   3178 0.526324  12.010000   ; qtot 1.333694
 3179          o    106    ccc     O1   3179 -0.39142825  16.000000   ; qtot 0.637188
 3180         oh    106    ccc     O2   3180 -0.56822625  16.000000   ; qtot -0.203623
 3181         ho    106    ccc    H11   3181 0.4186155   1.008000   ; qtot 0.322452
 3182         c3    106    ccc     C7   3182 -0.01321200  12.010000   ; qtot 0.309240
 3183         h1    106    ccc    H12   3183 0.08172200   1.008000   ; qtot 0.390962
 3184         h1    106    ccc    H13   3184 0.08172200   1.008000   ; qtot 0.472684
 3185         c3    106    ccc     C8   3185 -0.22180000  12.010000   ; qtot 0.250884
 3186         hc    106    ccc    H14   3186 0.09671800   1.008000   ; qtot 0.347602
 3187         hc    106    ccc    H15   3187 0.09671800   1.008000   ; qtot 0.444320
 3188          c    106    ccc     C9   3188 0.526324  12.010000   ; qtot 1.440847
 3189          o    106    ccc     O3   3189 -0.39142825  16.000000   ; qtot 0.744341
 3190         oh    106    ccc     O4   3190 -0.56822625  16.000000   ; qtot -0.096470
 3191         ho    106    ccc    H16   3191 0.4186155   1.008000   ; qtot 0.429605
 3192         os    106    ccc     O5   3192 -0.42966500  16.000000   ; qtot -0.000060
; residue  107 ccc rtp ccc q 0.0
 3193         c3    107    ccc     C1   3193 0.50749700  12.010000   ; qtot 0.507437
 3194         h1    107    ccc     H1   3194 -0.02808400   1.008000   ; qtot 0.479353
 3195         h1    107    ccc     H2   3195 -0.02808400   1.008000   ; qtot 0.451269
 3196         c3    107    ccc     C2   3196 -0.15486000  12.010000   ; qtot 0.296409
 3197         hc    107    ccc     H3   3197 0.10266400   1.008000   ; qtot 0.399073
 3198         hc    107    ccc     H4   3198 0.10266400   1.008000   ; qtot 0.501737
 3199         c3    107    ccc     C3   3199 -0.15693500  12.010000   ; qtot 0.344802
 3200         h1    107    ccc     H5   3200 0.08499200   1.008000   ; qtot 0.429794
 3201         h1    107    ccc     H6   3201 0.08499200   1.008000   ; qtot 0.514786
 3202         n3    107    ccc     N1   3202 -0.29948700  14.010000   ; qtot 0.215299
 3203         c3    107    ccc     C4   3203 -0.01321200  12.010000   ; qtot 0.202087
 3204         h1    107    ccc     H7   3204 0.08172200   1.008000   ; qtot 0.283809
 3205         h1    107    ccc     H8   3205 0.08172200   1.008000   ; qtot 0.365531
 3206         c3    107    ccc     C5   3206 -0.22180000  12.010000   ; qtot 0.143731
 3207         hc    107    ccc     H9   3207 0.09671800   1.008000   ; qtot 0.240449
 3208         hc    107    ccc    H10   3208 0.09671800   1.008000   ; qtot 0.337167
 3209          c    107    ccc     C6   3209 0.526324  12.010000   ; qtot 1.333694
 3210          o    107    ccc     O1   3210 -0.39142825  16.000000   ; qtot 0.637188
 3211         oh    107    ccc     O2   3211 -0.56822625  16.000000   ; qtot -0.203623
 3212         ho    107    ccc    H11   3212 0.4186155   1.008000   ; qtot 0.322452
 3213         c3    107    ccc     C7   3213 -0.01321200  12.010000   ; qtot 0.309240
 3214         h1    107    ccc    H12   3214 0.08172200   1.008000   ; qtot 0.390962
 3215         h1    107    ccc    H13   3215 0.08172200   1.008000   ; qtot 0.472684
 3216         c3    107    ccc     C8   3216 -0.22180000  12.010000   ; qtot 0.250884
 3217         hc    107    ccc    H14   3217 0.09671800   1.008000   ; qtot 0.347602
 3218         hc    107    ccc    H15   3218 0.09671800   1.008000   ; qtot 0.444320
 3219          c    107    ccc     C9   3219 0.526324  12.010000   ; qtot 1.440847
 3220          o    107    ccc     O3   3220 -0.39142825  16.000000   ; qtot 0.744341
 3221         oh    107    ccc     O4   3221 -0.56822625  16.000000   ; qtot -0.096470
 3222         ho    107    ccc    H16   3222 0.4186155   1.008000   ; qtot 0.429605
 3223         os    107    ccc     O5   3223 -0.42966500  16.000000   ; qtot -0.000060
; residue  108 ccc rtp ccc q 0.0
 3224         c3    108    ccc     C1   3224 0.50749700  12.010000   ; qtot 0.507437
 3225         h1    108    ccc     H1   3225 -0.02808400   1.008000   ; qtot 0.479353
 3226         h1    108    ccc     H2   3226 -0.02808400   1.008000   ; qtot 0.451269
 3227         c3    108    ccc     C2   3227 -0.15486000  12.010000   ; qtot 0.296409
 3228         hc    108    ccc     H3   3228 0.10266400   1.008000   ; qtot 0.399073
 3229         hc    108    ccc     H4   3229 0.10266400   1.008000   ; qtot 0.501737
 3230         c3    108    ccc     C3   3230 -0.15693500  12.010000   ; qtot 0.344802
 3231         h1    108    ccc     H5   3231 0.08499200   1.008000   ; qtot 0.429794
 3232         h1    108    ccc     H6   3232 0.08499200   1.008000   ; qtot 0.514786
 3233         n3    108    ccc     N1   3233 -0.29948700  14.010000   ; qtot 0.215299
 3234         c3    108    ccc     C4   3234 -0.01321200  12.010000   ; qtot 0.202087
 3235         h1    108    ccc     H7   3235 0.08172200   1.008000   ; qtot 0.283809
 3236         h1    108    ccc     H8   3236 0.08172200   1.008000   ; qtot 0.365531
 3237         c3    108    ccc     C5   3237 -0.22180000  12.010000   ; qtot 0.143731
 3238         hc    108    ccc     H9   3238 0.09671800   1.008000   ; qtot 0.240449
 3239         hc    108    ccc    H10   3239 0.09671800   1.008000   ; qtot 0.337167
 3240          c    108    ccc     C6   3240 0.526324  12.010000   ; qtot 1.333694
 3241          o    108    ccc     O1   3241 -0.39142825  16.000000   ; qtot 0.637188
 3242         oh    108    ccc     O2   3242 -0.56822625  16.000000   ; qtot -0.203623
 3243         ho    108    ccc    H11   3243 0.4186155   1.008000   ; qtot 0.322452
 3244         c3    108    ccc     C7   3244 -0.01321200  12.010000   ; qtot 0.309240
 3245         h1    108    ccc    H12   3245 0.08172200   1.008000   ; qtot 0.390962
 3246         h1    108    ccc    H13   3246 0.08172200   1.008000   ; qtot 0.472684
 3247         c3    108    ccc     C8   3247 -0.22180000  12.010000   ; qtot 0.250884
 3248         hc    108    ccc    H14   3248 0.09671800   1.008000   ; qtot 0.347602
 3249         hc    108    ccc    H15   3249 0.09671800   1.008000   ; qtot 0.444320
 3250          c    108    ccc     C9   3250 0.526324  12.010000   ; qtot 1.440847
 3251          o    108    ccc     O3   3251 -0.39142825  16.000000   ; qtot 0.744341
 3252         oh    108    ccc     O4   3252 -0.56822625  16.000000   ; qtot -0.096470
 3253         ho    108    ccc    H16   3253 0.4186155   1.008000   ; qtot 0.429605
 3254         os    108    ccc     O5   3254 -0.42966500  16.000000   ; qtot -0.000060
; residue  109 ccc rtp ccc q 0.0
 3255         c3    109    ccc     C1   3255 0.50749700  12.010000   ; qtot 0.507437
 3256         h1    109    ccc     H1   3256 -0.02808400   1.008000   ; qtot 0.479353
 3257         h1    109    ccc     H2   3257 -0.02808400   1.008000   ; qtot 0.451269
 3258         c3    109    ccc     C2   3258 -0.15486000  12.010000   ; qtot 0.296409
 3259         hc    109    ccc     H3   3259 0.10266400   1.008000   ; qtot 0.399073
 3260         hc    109    ccc     H4   3260 0.10266400   1.008000   ; qtot 0.501737
 3261         c3    109    ccc     C3   3261 -0.15693500  12.010000   ; qtot 0.344802
 3262         h1    109    ccc     H5   3262 0.08499200   1.008000   ; qtot 0.429794
 3263         h1    109    ccc     H6   3263 0.08499200   1.008000   ; qtot 0.514786
 3264         n3    109    ccc     N1   3264 -0.29948700  14.010000   ; qtot 0.215299
 3265         c3    109    ccc     C4   3265 -0.01321200  12.010000   ; qtot 0.202087
 3266         h1    109    ccc     H7   3266 0.08172200   1.008000   ; qtot 0.283809
 3267         h1    109    ccc     H8   3267 0.08172200   1.008000   ; qtot 0.365531
 3268         c3    109    ccc     C5   3268 -0.22180000  12.010000   ; qtot 0.143731
 3269         hc    109    ccc     H9   3269 0.09671800   1.008000   ; qtot 0.240449
 3270         hc    109    ccc    H10   3270 0.09671800   1.008000   ; qtot 0.337167
 3271          c    109    ccc     C6   3271 0.526324  12.010000   ; qtot 1.333694
 3272          o    109    ccc     O1   3272 -0.39142825  16.000000   ; qtot 0.637188
 3273         oh    109    ccc     O2   3273 -0.56822625  16.000000   ; qtot -0.203623
 3274         ho    109    ccc    H11   3274 0.4186155   1.008000   ; qtot 0.322452
 3275         c3    109    ccc     C7   3275 -0.01321200  12.010000   ; qtot 0.309240
 3276         h1    109    ccc    H12   3276 0.08172200   1.008000   ; qtot 0.390962
 3277         h1    109    ccc    H13   3277 0.08172200   1.008000   ; qtot 0.472684
 3278         c3    109    ccc     C8   3278 -0.22180000  12.010000   ; qtot 0.250884
 3279         hc    109    ccc    H14   3279 0.09671800   1.008000   ; qtot 0.347602
 3280         hc    109    ccc    H15   3280 0.09671800   1.008000   ; qtot 0.444320
 3281          c    109    ccc     C9   3281 0.526324  12.010000   ; qtot 1.440847
 3282          o    109    ccc     O3   3282 -0.39142825  16.000000   ; qtot 0.744341
 3283         oh    109    ccc     O4   3283 -0.56822625  16.000000   ; qtot -0.096470
 3284         ho    109    ccc    H16   3284 0.4186155   1.008000   ; qtot 0.429605
 3285         os    109    ccc     O5   3285 -0.42966500  16.000000   ; qtot -0.000060
; residue  110 ccc rtp ccc q 0.0
 3286         c3    110    ccc     C1   3286 0.50749700  12.010000   ; qtot 0.507437
 3287         h1    110    ccc     H1   3287 -0.02808400   1.008000   ; qtot 0.479353
 3288         h1    110    ccc     H2   3288 -0.02808400   1.008000   ; qtot 0.451269
 3289         c3    110    ccc     C2   3289 -0.15486000  12.010000   ; qtot 0.296409
 3290         hc    110    ccc     H3   3290 0.10266400   1.008000   ; qtot 0.399073
 3291         hc    110    ccc     H4   3291 0.10266400   1.008000   ; qtot 0.501737
 3292         c3    110    ccc     C3   3292 -0.15693500  12.010000   ; qtot 0.344802
 3293         h1    110    ccc     H5   3293 0.08499200   1.008000   ; qtot 0.429794
 3294         h1    110    ccc     H6   3294 0.08499200   1.008000   ; qtot 0.514786
 3295         n3    110    ccc     N1   3295 -0.29948700  14.010000   ; qtot 0.215299
 3296         c3    110    ccc     C4   3296 -0.01321200  12.010000   ; qtot 0.202087
 3297         h1    110    ccc     H7   3297 0.08172200   1.008000   ; qtot 0.283809
 3298         h1    110    ccc     H8   3298 0.08172200   1.008000   ; qtot 0.365531
 3299         c3    110    ccc     C5   3299 -0.22180000  12.010000   ; qtot 0.143731
 3300         hc    110    ccc     H9   3300 0.09671800   1.008000   ; qtot 0.240449
 3301         hc    110    ccc    H10   3301 0.09671800   1.008000   ; qtot 0.337167
 3302          c    110    ccc     C6   3302 0.526324  12.010000   ; qtot 1.333694
 3303          o    110    ccc     O1   3303 -0.39142825  16.000000   ; qtot 0.637188
 3304         oh    110    ccc     O2   3304 -0.56822625  16.000000   ; qtot -0.203623
 3305         ho    110    ccc    H11   3305 0.4186155   1.008000   ; qtot 0.322452
 3306         c3    110    ccc     C7   3306 -0.01321200  12.010000   ; qtot 0.309240
 3307         h1    110    ccc    H12   3307 0.08172200   1.008000   ; qtot 0.390962
 3308         h1    110    ccc    H13   3308 0.08172200   1.008000   ; qtot 0.472684
 3309         c3    110    ccc     C8   3309 -0.22180000  12.010000   ; qtot 0.250884
 3310         hc    110    ccc    H14   3310 0.09671800   1.008000   ; qtot 0.347602
 3311         hc    110    ccc    H15   3311 0.09671800   1.008000   ; qtot 0.444320
 3312          c    110    ccc     C9   3312 0.526324  12.010000   ; qtot 1.440847
 3313          o    110    ccc     O3   3313 -0.39142825  16.000000   ; qtot 0.744341
 3314         oh    110    ccc     O4   3314 -0.56822625  16.000000   ; qtot -0.096470
 3315         ho    110    ccc    H16   3315 0.4186155   1.008000   ; qtot 0.429605
 3316         os    110    ccc     O5   3316 -0.42966500  16.000000   ; qtot -0.000060
; residue  111 ccc rtp ccc q 0.0
 3317         c3    111    ccc     C1   3317 0.50749700  12.010000   ; qtot 0.507437
 3318         h1    111    ccc     H1   3318 -0.02808400   1.008000   ; qtot 0.479353
 3319         h1    111    ccc     H2   3319 -0.02808400   1.008000   ; qtot 0.451269
 3320         c3    111    ccc     C2   3320 -0.15486000  12.010000   ; qtot 0.296409
 3321         hc    111    ccc     H3   3321 0.10266400   1.008000   ; qtot 0.399073
 3322         hc    111    ccc     H4   3322 0.10266400   1.008000   ; qtot 0.501737
 3323         c3    111    ccc     C3   3323 -0.15693500  12.010000   ; qtot 0.344802
 3324         h1    111    ccc     H5   3324 0.08499200   1.008000   ; qtot 0.429794
 3325         h1    111    ccc     H6   3325 0.08499200   1.008000   ; qtot 0.514786
 3326         n3    111    ccc     N1   3326 -0.29948700  14.010000   ; qtot 0.215299
 3327         c3    111    ccc     C4   3327 -0.01321200  12.010000   ; qtot 0.202087
 3328         h1    111    ccc     H7   3328 0.08172200   1.008000   ; qtot 0.283809
 3329         h1    111    ccc     H8   3329 0.08172200   1.008000   ; qtot 0.365531
 3330         c3    111    ccc     C5   3330 -0.22180000  12.010000   ; qtot 0.143731
 3331         hc    111    ccc     H9   3331 0.09671800   1.008000   ; qtot 0.240449
 3332         hc    111    ccc    H10   3332 0.09671800   1.008000   ; qtot 0.337167
 3333          c    111    ccc     C6   3333 0.526324  12.010000   ; qtot 1.333694
 3334          o    111    ccc     O1   3334 -0.39142825  16.000000   ; qtot 0.637188
 3335         oh    111    ccc     O2   3335 -0.56822625  16.000000   ; qtot -0.203623
 3336         ho    111    ccc    H11   3336 0.4186155   1.008000   ; qtot 0.322452
 3337         c3    111    ccc     C7   3337 -0.01321200  12.010000   ; qtot 0.309240
 3338         h1    111    ccc    H12   3338 0.08172200   1.008000   ; qtot 0.390962
 3339         h1    111    ccc    H13   3339 0.08172200   1.008000   ; qtot 0.472684
 3340         c3    111    ccc     C8   3340 -0.22180000  12.010000   ; qtot 0.250884
 3341         hc    111    ccc    H14   3341 0.09671800   1.008000   ; qtot 0.347602
 3342         hc    111    ccc    H15   3342 0.09671800   1.008000   ; qtot 0.444320
 3343          c    111    ccc     C9   3343 0.526324  12.010000   ; qtot 1.440847
 3344          o    111    ccc     O3   3344 -0.39142825  16.000000   ; qtot 0.744341
 3345         oh    111    ccc     O4   3345 -0.56822625  16.000000   ; qtot -0.096470
 3346         ho    111    ccc    H16   3346 0.4186155   1.008000   ; qtot 0.429605
 3347         os    111    ccc     O5   3347 -0.42966500  16.000000   ; qtot -0.000060
; residue  112 ccc rtp ccc q 0.0
 3348         c3    112    ccc     C1   3348 0.50749700  12.010000   ; qtot 0.507437
 3349         h1    112    ccc     H1   3349 -0.02808400   1.008000   ; qtot 0.479353
 3350         h1    112    ccc     H2   3350 -0.02808400   1.008000   ; qtot 0.451269
 3351         c3    112    ccc     C2   3351 -0.15486000  12.010000   ; qtot 0.296409
 3352         hc    112    ccc     H3   3352 0.10266400   1.008000   ; qtot 0.399073
 3353         hc    112    ccc     H4   3353 0.10266400   1.008000   ; qtot 0.501737
 3354         c3    112    ccc     C3   3354 -0.15693500  12.010000   ; qtot 0.344802
 3355         h1    112    ccc     H5   3355 0.08499200   1.008000   ; qtot 0.429794
 3356         h1    112    ccc     H6   3356 0.08499200   1.008000   ; qtot 0.514786
 3357         n3    112    ccc     N1   3357 -0.29948700  14.010000   ; qtot 0.215299
 3358         c3    112    ccc     C4   3358 -0.01321200  12.010000   ; qtot 0.202087
 3359         h1    112    ccc     H7   3359 0.08172200   1.008000   ; qtot 0.283809
 3360         h1    112    ccc     H8   3360 0.08172200   1.008000   ; qtot 0.365531
 3361         c3    112    ccc     C5   3361 -0.22180000  12.010000   ; qtot 0.143731
 3362         hc    112    ccc     H9   3362 0.09671800   1.008000   ; qtot 0.240449
 3363         hc    112    ccc    H10   3363 0.09671800   1.008000   ; qtot 0.337167
 3364          c    112    ccc     C6   3364 0.526324  12.010000   ; qtot 1.333694
 3365          o    112    ccc     O1   3365 -0.39142825  16.000000   ; qtot 0.637188
 3366         oh    112    ccc     O2   3366 -0.56822625  16.000000   ; qtot -0.203623
 3367         ho    112    ccc    H11   3367 0.4186155   1.008000   ; qtot 0.322452
 3368         c3    112    ccc     C7   3368 -0.01321200  12.010000   ; qtot 0.309240
 3369         h1    112    ccc    H12   3369 0.08172200   1.008000   ; qtot 0.390962
 3370         h1    112    ccc    H13   3370 0.08172200   1.008000   ; qtot 0.472684
 3371         c3    112    ccc     C8   3371 -0.22180000  12.010000   ; qtot 0.250884
 3372         hc    112    ccc    H14   3372 0.09671800   1.008000   ; qtot 0.347602
 3373         hc    112    ccc    H15   3373 0.09671800   1.008000   ; qtot 0.444320
 3374          c    112    ccc     C9   3374 0.526324  12.010000   ; qtot 1.440847
 3375          o    112    ccc     O3   3375 -0.39142825  16.000000   ; qtot 0.744341
 3376         oh    112    ccc     O4   3376 -0.56822625  16.000000   ; qtot -0.096470
 3377         ho    112    ccc    H16   3377 0.4186155   1.008000   ; qtot 0.429605
 3378         os    112    ccc     O5   3378 -0.42966500  16.000000   ; qtot -0.000060
; residue  113 ccc rtp ccc q 0.0
 3379         c3    113    ccc     C1   3379 0.50749700  12.010000   ; qtot 0.507437
 3380         h1    113    ccc     H1   3380 -0.02808400   1.008000   ; qtot 0.479353
 3381         h1    113    ccc     H2   3381 -0.02808400   1.008000   ; qtot 0.451269
 3382         c3    113    ccc     C2   3382 -0.15486000  12.010000   ; qtot 0.296409
 3383         hc    113    ccc     H3   3383 0.10266400   1.008000   ; qtot 0.399073
 3384         hc    113    ccc     H4   3384 0.10266400   1.008000   ; qtot 0.501737
 3385         c3    113    ccc     C3   3385 -0.15693500  12.010000   ; qtot 0.344802
 3386         h1    113    ccc     H5   3386 0.08499200   1.008000   ; qtot 0.429794
 3387         h1    113    ccc     H6   3387 0.08499200   1.008000   ; qtot 0.514786
 3388         n3    113    ccc     N1   3388 -0.29948700  14.010000   ; qtot 0.215299
 3389         c3    113    ccc     C4   3389 -0.01321200  12.010000   ; qtot 0.202087
 3390         h1    113    ccc     H7   3390 0.08172200   1.008000   ; qtot 0.283809
 3391         h1    113    ccc     H8   3391 0.08172200   1.008000   ; qtot 0.365531
 3392         c3    113    ccc     C5   3392 -0.22180000  12.010000   ; qtot 0.143731
 3393         hc    113    ccc     H9   3393 0.09671800   1.008000   ; qtot 0.240449
 3394         hc    113    ccc    H10   3394 0.09671800   1.008000   ; qtot 0.337167
 3395          c    113    ccc     C6   3395 0.526324  12.010000   ; qtot 1.333694
 3396          o    113    ccc     O1   3396 -0.39142825  16.000000   ; qtot 0.637188
 3397         oh    113    ccc     O2   3397 -0.56822625  16.000000   ; qtot -0.203623
 3398         ho    113    ccc    H11   3398 0.4186155   1.008000   ; qtot 0.322452
 3399         c3    113    ccc     C7   3399 -0.01321200  12.010000   ; qtot 0.309240
 3400         h1    113    ccc    H12   3400 0.08172200   1.008000   ; qtot 0.390962
 3401         h1    113    ccc    H13   3401 0.08172200   1.008000   ; qtot 0.472684
 3402         c3    113    ccc     C8   3402 -0.22180000  12.010000   ; qtot 0.250884
 3403         hc    113    ccc    H14   3403 0.09671800   1.008000   ; qtot 0.347602
 3404         hc    113    ccc    H15   3404 0.09671800   1.008000   ; qtot 0.444320
 3405          c    113    ccc     C9   3405 0.526324  12.010000   ; qtot 1.440847
 3406          o    113    ccc     O3   3406 -0.39142825  16.000000   ; qtot 0.744341
 3407         oh    113    ccc     O4   3407 -0.56822625  16.000000   ; qtot -0.096470
 3408         ho    113    ccc    H16   3408 0.4186155   1.008000   ; qtot 0.429605
 3409         os    113    ccc     O5   3409 -0.42966500  16.000000   ; qtot -0.000060
; residue  114 ccc rtp ccc q 0.0
 3410         c3    114    ccc     C1   3410 0.50749700  12.010000   ; qtot 0.507437
 3411         h1    114    ccc     H1   3411 -0.02808400   1.008000   ; qtot 0.479353
 3412         h1    114    ccc     H2   3412 -0.02808400   1.008000   ; qtot 0.451269
 3413         c3    114    ccc     C2   3413 -0.15486000  12.010000   ; qtot 0.296409
 3414         hc    114    ccc     H3   3414 0.10266400   1.008000   ; qtot 0.399073
 3415         hc    114    ccc     H4   3415 0.10266400   1.008000   ; qtot 0.501737
 3416         c3    114    ccc     C3   3416 -0.15693500  12.010000   ; qtot 0.344802
 3417         h1    114    ccc     H5   3417 0.08499200   1.008000   ; qtot 0.429794
 3418         h1    114    ccc     H6   3418 0.08499200   1.008000   ; qtot 0.514786
 3419         n3    114    ccc     N1   3419 -0.29948700  14.010000   ; qtot 0.215299
 3420         c3    114    ccc     C4   3420 -0.01321200  12.010000   ; qtot 0.202087
 3421         h1    114    ccc     H7   3421 0.08172200   1.008000   ; qtot 0.283809
 3422         h1    114    ccc     H8   3422 0.08172200   1.008000   ; qtot 0.365531
 3423         c3    114    ccc     C5   3423 -0.22180000  12.010000   ; qtot 0.143731
 3424         hc    114    ccc     H9   3424 0.09671800   1.008000   ; qtot 0.240449
 3425         hc    114    ccc    H10   3425 0.09671800   1.008000   ; qtot 0.337167
 3426          c    114    ccc     C6   3426 0.526324  12.010000   ; qtot 1.333694
 3427          o    114    ccc     O1   3427 -0.39142825  16.000000   ; qtot 0.637188
 3428         oh    114    ccc     O2   3428 -0.56822625  16.000000   ; qtot -0.203623
 3429         ho    114    ccc    H11   3429 0.4186155   1.008000   ; qtot 0.322452
 3430         c3    114    ccc     C7   3430 -0.01321200  12.010000   ; qtot 0.309240
 3431         h1    114    ccc    H12   3431 0.08172200   1.008000   ; qtot 0.390962
 3432         h1    114    ccc    H13   3432 0.08172200   1.008000   ; qtot 0.472684
 3433         c3    114    ccc     C8   3433 -0.22180000  12.010000   ; qtot 0.250884
 3434         hc    114    ccc    H14   3434 0.09671800   1.008000   ; qtot 0.347602
 3435         hc    114    ccc    H15   3435 0.09671800   1.008000   ; qtot 0.444320
 3436          c    114    ccc     C9   3436 0.526324  12.010000   ; qtot 1.440847
 3437          o    114    ccc     O3   3437 -0.39142825  16.000000   ; qtot 0.744341
 3438         oh    114    ccc     O4   3438 -0.56822625  16.000000   ; qtot -0.096470
 3439         ho    114    ccc    H16   3439 0.4186155   1.008000   ; qtot 0.429605
 3440         os    114    ccc     O5   3440 -0.42966500  16.000000   ; qtot -0.000060
; residue  115 ccc rtp ccc q 0.0
 3441         c3    115    ccc     C1   3441 0.50749700  12.010000   ; qtot 0.507437
 3442         h1    115    ccc     H1   3442 -0.02808400   1.008000   ; qtot 0.479353
 3443         h1    115    ccc     H2   3443 -0.02808400   1.008000   ; qtot 0.451269
 3444         c3    115    ccc     C2   3444 -0.15486000  12.010000   ; qtot 0.296409
 3445         hc    115    ccc     H3   3445 0.10266400   1.008000   ; qtot 0.399073
 3446         hc    115    ccc     H4   3446 0.10266400   1.008000   ; qtot 0.501737
 3447         c3    115    ccc     C3   3447 -0.15693500  12.010000   ; qtot 0.344802
 3448         h1    115    ccc     H5   3448 0.08499200   1.008000   ; qtot 0.429794
 3449         h1    115    ccc     H6   3449 0.08499200   1.008000   ; qtot 0.514786
 3450         n3    115    ccc     N1   3450 -0.29948700  14.010000   ; qtot 0.215299
 3451         c3    115    ccc     C4   3451 -0.01321200  12.010000   ; qtot 0.202087
 3452         h1    115    ccc     H7   3452 0.08172200   1.008000   ; qtot 0.283809
 3453         h1    115    ccc     H8   3453 0.08172200   1.008000   ; qtot 0.365531
 3454         c3    115    ccc     C5   3454 -0.22180000  12.010000   ; qtot 0.143731
 3455         hc    115    ccc     H9   3455 0.09671800   1.008000   ; qtot 0.240449
 3456         hc    115    ccc    H10   3456 0.09671800   1.008000   ; qtot 0.337167
 3457          c    115    ccc     C6   3457 0.526324  12.010000   ; qtot 1.333694
 3458          o    115    ccc     O1   3458 -0.39142825  16.000000   ; qtot 0.637188
 3459         oh    115    ccc     O2   3459 -0.56822625  16.000000   ; qtot -0.203623
 3460         ho    115    ccc    H11   3460 0.4186155   1.008000   ; qtot 0.322452
 3461         c3    115    ccc     C7   3461 -0.01321200  12.010000   ; qtot 0.309240
 3462         h1    115    ccc    H12   3462 0.08172200   1.008000   ; qtot 0.390962
 3463         h1    115    ccc    H13   3463 0.08172200   1.008000   ; qtot 0.472684
 3464         c3    115    ccc     C8   3464 -0.22180000  12.010000   ; qtot 0.250884
 3465         hc    115    ccc    H14   3465 0.09671800   1.008000   ; qtot 0.347602
 3466         hc    115    ccc    H15   3466 0.09671800   1.008000   ; qtot 0.444320
 3467          c    115    ccc     C9   3467 0.526324  12.010000   ; qtot 1.440847
 3468          o    115    ccc     O3   3468 -0.39142825  16.000000   ; qtot 0.744341
 3469         oh    115    ccc     O4   3469 -0.56822625  16.000000   ; qtot -0.096470
 3470         ho    115    ccc    H16   3470 0.4186155   1.008000   ; qtot 0.429605
 3471         os    115    ccc     O5   3471 -0.42966500  16.000000   ; qtot -0.000060
; residue  116 ccc rtp ccc q 0.0
 3472         c3    116    ccc     C1   3472 0.50749700  12.010000   ; qtot 0.507437
 3473         h1    116    ccc     H1   3473 -0.02808400   1.008000   ; qtot 0.479353
 3474         h1    116    ccc     H2   3474 -0.02808400   1.008000   ; qtot 0.451269
 3475         c3    116    ccc     C2   3475 -0.15486000  12.010000   ; qtot 0.296409
 3476         hc    116    ccc     H3   3476 0.10266400   1.008000   ; qtot 0.399073
 3477         hc    116    ccc     H4   3477 0.10266400   1.008000   ; qtot 0.501737
 3478         c3    116    ccc     C3   3478 -0.15693500  12.010000   ; qtot 0.344802
 3479         h1    116    ccc     H5   3479 0.08499200   1.008000   ; qtot 0.429794
 3480         h1    116    ccc     H6   3480 0.08499200   1.008000   ; qtot 0.514786
 3481         n3    116    ccc     N1   3481 -0.29948700  14.010000   ; qtot 0.215299
 3482         c3    116    ccc     C4   3482 -0.01321200  12.010000   ; qtot 0.202087
 3483         h1    116    ccc     H7   3483 0.08172200   1.008000   ; qtot 0.283809
 3484         h1    116    ccc     H8   3484 0.08172200   1.008000   ; qtot 0.365531
 3485         c3    116    ccc     C5   3485 -0.22180000  12.010000   ; qtot 0.143731
 3486         hc    116    ccc     H9   3486 0.09671800   1.008000   ; qtot 0.240449
 3487         hc    116    ccc    H10   3487 0.09671800   1.008000   ; qtot 0.337167
 3488          c    116    ccc     C6   3488 0.526324  12.010000   ; qtot 1.333694
 3489          o    116    ccc     O1   3489 -0.39142825  16.000000   ; qtot 0.637188
 3490         oh    116    ccc     O2   3490 -0.56822625  16.000000   ; qtot -0.203623
 3491         ho    116    ccc    H11   3491 0.4186155   1.008000   ; qtot 0.322452
 3492         c3    116    ccc     C7   3492 -0.01321200  12.010000   ; qtot 0.309240
 3493         h1    116    ccc    H12   3493 0.08172200   1.008000   ; qtot 0.390962
 3494         h1    116    ccc    H13   3494 0.08172200   1.008000   ; qtot 0.472684
 3495         c3    116    ccc     C8   3495 -0.22180000  12.010000   ; qtot 0.250884
 3496         hc    116    ccc    H14   3496 0.09671800   1.008000   ; qtot 0.347602
 3497         hc    116    ccc    H15   3497 0.09671800   1.008000   ; qtot 0.444320
 3498          c    116    ccc     C9   3498 0.526324  12.010000   ; qtot 1.440847
 3499          o    116    ccc     O3   3499 -0.39142825  16.000000   ; qtot 0.744341
 3500         oh    116    ccc     O4   3500 -0.56822625  16.000000   ; qtot -0.096470
 3501         ho    116    ccc    H16   3501 0.4186155   1.008000   ; qtot 0.429605
 3502         os    116    ccc     O5   3502 -0.42966500  16.000000   ; qtot -0.000060
; residue  117 ccc rtp ccc q 0.0
 3503         c3    117    ccc     C1   3503 0.50749700  12.010000   ; qtot 0.507437
 3504         h1    117    ccc     H1   3504 -0.02808400   1.008000   ; qtot 0.479353
 3505         h1    117    ccc     H2   3505 -0.02808400   1.008000   ; qtot 0.451269
 3506         c3    117    ccc     C2   3506 -0.15486000  12.010000   ; qtot 0.296409
 3507         hc    117    ccc     H3   3507 0.10266400   1.008000   ; qtot 0.399073
 3508         hc    117    ccc     H4   3508 0.10266400   1.008000   ; qtot 0.501737
 3509         c3    117    ccc     C3   3509 -0.15693500  12.010000   ; qtot 0.344802
 3510         h1    117    ccc     H5   3510 0.08499200   1.008000   ; qtot 0.429794
 3511         h1    117    ccc     H6   3511 0.08499200   1.008000   ; qtot 0.514786
 3512         n3    117    ccc     N1   3512 -0.29948700  14.010000   ; qtot 0.215299
 3513         c3    117    ccc     C4   3513 -0.01321200  12.010000   ; qtot 0.202087
 3514         h1    117    ccc     H7   3514 0.08172200   1.008000   ; qtot 0.283809
 3515         h1    117    ccc     H8   3515 0.08172200   1.008000   ; qtot 0.365531
 3516         c3    117    ccc     C5   3516 -0.22180000  12.010000   ; qtot 0.143731
 3517         hc    117    ccc     H9   3517 0.09671800   1.008000   ; qtot 0.240449
 3518         hc    117    ccc    H10   3518 0.09671800   1.008000   ; qtot 0.337167
 3519          c    117    ccc     C6   3519 0.526324  12.010000   ; qtot 1.333694
 3520          o    117    ccc     O1   3520 -0.39142825  16.000000   ; qtot 0.637188
 3521         oh    117    ccc     O2   3521 -0.56822625  16.000000   ; qtot -0.203623
 3522         ho    117    ccc    H11   3522 0.4186155   1.008000   ; qtot 0.322452
 3523         c3    117    ccc     C7   3523 -0.01321200  12.010000   ; qtot 0.309240
 3524         h1    117    ccc    H12   3524 0.08172200   1.008000   ; qtot 0.390962
 3525         h1    117    ccc    H13   3525 0.08172200   1.008000   ; qtot 0.472684
 3526         c3    117    ccc     C8   3526 -0.22180000  12.010000   ; qtot 0.250884
 3527         hc    117    ccc    H14   3527 0.09671800   1.008000   ; qtot 0.347602
 3528         hc    117    ccc    H15   3528 0.09671800   1.008000   ; qtot 0.444320
 3529          c    117    ccc     C9   3529 0.526324  12.010000   ; qtot 1.440847
 3530          o    117    ccc     O3   3530 -0.39142825  16.000000   ; qtot 0.744341
 3531         oh    117    ccc     O4   3531 -0.56822625  16.000000   ; qtot -0.096470
 3532         ho    117    ccc    H16   3532 0.4186155   1.008000   ; qtot 0.429605
 3533         os    117    ccc     O5   3533 -0.42966500  16.000000   ; qtot -0.000060
; residue  118 ccc rtp ccc q 0.0
 3534         c3    118    ccc     C1   3534 0.50749700  12.010000   ; qtot 0.507437
 3535         h1    118    ccc     H1   3535 -0.02808400   1.008000   ; qtot 0.479353
 3536         h1    118    ccc     H2   3536 -0.02808400   1.008000   ; qtot 0.451269
 3537         c3    118    ccc     C2   3537 -0.15486000  12.010000   ; qtot 0.296409
 3538         hc    118    ccc     H3   3538 0.10266400   1.008000   ; qtot 0.399073
 3539         hc    118    ccc     H4   3539 0.10266400   1.008000   ; qtot 0.501737
 3540         c3    118    ccc     C3   3540 -0.15693500  12.010000   ; qtot 0.344802
 3541         h1    118    ccc     H5   3541 0.08499200   1.008000   ; qtot 0.429794
 3542         h1    118    ccc     H6   3542 0.08499200   1.008000   ; qtot 0.514786
 3543         n3    118    ccc     N1   3543 -0.29948700  14.010000   ; qtot 0.215299
 3544         c3    118    ccc     C4   3544 -0.01321200  12.010000   ; qtot 0.202087
 3545         h1    118    ccc     H7   3545 0.08172200   1.008000   ; qtot 0.283809
 3546         h1    118    ccc     H8   3546 0.08172200   1.008000   ; qtot 0.365531
 3547         c3    118    ccc     C5   3547 -0.22180000  12.010000   ; qtot 0.143731
 3548         hc    118    ccc     H9   3548 0.09671800   1.008000   ; qtot 0.240449
 3549         hc    118    ccc    H10   3549 0.09671800   1.008000   ; qtot 0.337167
 3550          c    118    ccc     C6   3550 0.526324  12.010000   ; qtot 1.333694
 3551          o    118    ccc     O1   3551 -0.39142825  16.000000   ; qtot 0.637188
 3552         oh    118    ccc     O2   3552 -0.56822625  16.000000   ; qtot -0.203623
 3553         ho    118    ccc    H11   3553 0.4186155   1.008000   ; qtot 0.322452
 3554         c3    118    ccc     C7   3554 -0.01321200  12.010000   ; qtot 0.309240
 3555         h1    118    ccc    H12   3555 0.08172200   1.008000   ; qtot 0.390962
 3556         h1    118    ccc    H13   3556 0.08172200   1.008000   ; qtot 0.472684
 3557         c3    118    ccc     C8   3557 -0.22180000  12.010000   ; qtot 0.250884
 3558         hc    118    ccc    H14   3558 0.09671800   1.008000   ; qtot 0.347602
 3559         hc    118    ccc    H15   3559 0.09671800   1.008000   ; qtot 0.444320
 3560          c    118    ccc     C9   3560 0.526324  12.010000   ; qtot 1.440847
 3561          o    118    ccc     O3   3561 -0.39142825  16.000000   ; qtot 0.744341
 3562         oh    118    ccc     O4   3562 -0.56822625  16.000000   ; qtot -0.096470
 3563         ho    118    ccc    H16   3563 0.4186155   1.008000   ; qtot 0.429605
 3564         os    118    ccc     O5   3564 -0.42966500  16.000000   ; qtot -0.000060
; residue  119 ccc rtp ccc q 0.0
 3565         c3    119    ccc     C1   3565 0.50749700  12.010000   ; qtot 0.507437
 3566         h1    119    ccc     H1   3566 -0.02808400   1.008000   ; qtot 0.479353
 3567         h1    119    ccc     H2   3567 -0.02808400   1.008000   ; qtot 0.451269
 3568         c3    119    ccc     C2   3568 -0.15486000  12.010000   ; qtot 0.296409
 3569         hc    119    ccc     H3   3569 0.10266400   1.008000   ; qtot 0.399073
 3570         hc    119    ccc     H4   3570 0.10266400   1.008000   ; qtot 0.501737
 3571         c3    119    ccc     C3   3571 -0.15693500  12.010000   ; qtot 0.344802
 3572         h1    119    ccc     H5   3572 0.08499200   1.008000   ; qtot 0.429794
 3573         h1    119    ccc     H6   3573 0.08499200   1.008000   ; qtot 0.514786
 3574         n3    119    ccc     N1   3574 -0.29948700  14.010000   ; qtot 0.215299
 3575         c3    119    ccc     C4   3575 -0.01321200  12.010000   ; qtot 0.202087
 3576         h1    119    ccc     H7   3576 0.08172200   1.008000   ; qtot 0.283809
 3577         h1    119    ccc     H8   3577 0.08172200   1.008000   ; qtot 0.365531
 3578         c3    119    ccc     C5   3578 -0.22180000  12.010000   ; qtot 0.143731
 3579         hc    119    ccc     H9   3579 0.09671800   1.008000   ; qtot 0.240449
 3580         hc    119    ccc    H10   3580 0.09671800   1.008000   ; qtot 0.337167
 3581          c    119    ccc     C6   3581 0.526324  12.010000   ; qtot 1.333694
 3582          o    119    ccc     O1   3582 -0.39142825  16.000000   ; qtot 0.637188
 3583         oh    119    ccc     O2   3583 -0.56822625  16.000000   ; qtot -0.203623
 3584         ho    119    ccc    H11   3584 0.4186155   1.008000   ; qtot 0.322452
 3585         c3    119    ccc     C7   3585 -0.01321200  12.010000   ; qtot 0.309240
 3586         h1    119    ccc    H12   3586 0.08172200   1.008000   ; qtot 0.390962
 3587         h1    119    ccc    H13   3587 0.08172200   1.008000   ; qtot 0.472684
 3588         c3    119    ccc     C8   3588 -0.22180000  12.010000   ; qtot 0.250884
 3589         hc    119    ccc    H14   3589 0.09671800   1.008000   ; qtot 0.347602
 3590         hc    119    ccc    H15   3590 0.09671800   1.008000   ; qtot 0.444320
 3591          c    119    ccc     C9   3591 0.526324  12.010000   ; qtot 1.440847
 3592          o    119    ccc     O3   3592 -0.39142825  16.000000   ; qtot 0.744341
 3593         oh    119    ccc     O4   3593 -0.56822625  16.000000   ; qtot -0.096470
 3594         ho    119    ccc    H16   3594 0.4186155   1.008000   ; qtot 0.429605
 3595         os    119    ccc     O5   3595 -0.42966500  16.000000   ; qtot -0.000060
; residue  120 ccc rtp ccc q 0.0
 3596         c3    120    ccc     C1   3596 0.50749700  12.010000   ; qtot 0.507437
 3597         h1    120    ccc     H1   3597 -0.02808400   1.008000   ; qtot 0.479353
 3598         h1    120    ccc     H2   3598 -0.02808400   1.008000   ; qtot 0.451269
 3599         c3    120    ccc     C2   3599 -0.15486000  12.010000   ; qtot 0.296409
 3600         hc    120    ccc     H3   3600 0.10266400   1.008000   ; qtot 0.399073
 3601         hc    120    ccc     H4   3601 0.10266400   1.008000   ; qtot 0.501737
 3602         c3    120    ccc     C3   3602 -0.15693500  12.010000   ; qtot 0.344802
 3603         h1    120    ccc     H5   3603 0.08499200   1.008000   ; qtot 0.429794
 3604         h1    120    ccc     H6   3604 0.08499200   1.008000   ; qtot 0.514786
 3605         n3    120    ccc     N1   3605 -0.29948700  14.010000   ; qtot 0.215299
 3606         c3    120    ccc     C4   3606 -0.01321200  12.010000   ; qtot 0.202087
 3607         h1    120    ccc     H7   3607 0.08172200   1.008000   ; qtot 0.283809
 3608         h1    120    ccc     H8   3608 0.08172200   1.008000   ; qtot 0.365531
 3609         c3    120    ccc     C5   3609 -0.22180000  12.010000   ; qtot 0.143731
 3610         hc    120    ccc     H9   3610 0.09671800   1.008000   ; qtot 0.240449
 3611         hc    120    ccc    H10   3611 0.09671800   1.008000   ; qtot 0.337167
 3612          c    120    ccc     C6   3612 0.526324  12.010000   ; qtot 1.333694
 3613          o    120    ccc     O1   3613 -0.39142825  16.000000   ; qtot 0.637188
 3614         oh    120    ccc     O2   3614 -0.56822625  16.000000   ; qtot -0.203623
 3615         ho    120    ccc    H11   3615 0.4186155   1.008000   ; qtot 0.322452
 3616         c3    120    ccc     C7   3616 -0.01321200  12.010000   ; qtot 0.309240
 3617         h1    120    ccc    H12   3617 0.08172200   1.008000   ; qtot 0.390962
 3618         h1    120    ccc    H13   3618 0.08172200   1.008000   ; qtot 0.472684
 3619         c3    120    ccc     C8   3619 -0.22180000  12.010000   ; qtot 0.250884
 3620         hc    120    ccc    H14   3620 0.09671800   1.008000   ; qtot 0.347602
 3621         hc    120    ccc    H15   3621 0.09671800   1.008000   ; qtot 0.444320
 3622          c    120    ccc     C9   3622 0.526324  12.010000   ; qtot 1.440847
 3623          o    120    ccc     O3   3623 -0.39142825  16.000000   ; qtot 0.744341
 3624         oh    120    ccc     O4   3624 -0.56822625  16.000000   ; qtot -0.096470
 3625         ho    120    ccc    H16   3625 0.4186155   1.008000   ; qtot 0.429605
 3626         os    120    ccc     O5   3626 -0.42966500  16.000000   ; qtot -0.000060
; residue  121 ccc rtp ccc q 0.0
 3627         c3    121    ccc     C1   3627 0.50749700  12.010000   ; qtot 0.507437
 3628         h1    121    ccc     H1   3628 -0.02808400   1.008000   ; qtot 0.479353
 3629         h1    121    ccc     H2   3629 -0.02808400   1.008000   ; qtot 0.451269
 3630         c3    121    ccc     C2   3630 -0.15486000  12.010000   ; qtot 0.296409
 3631         hc    121    ccc     H3   3631 0.10266400   1.008000   ; qtot 0.399073
 3632         hc    121    ccc     H4   3632 0.10266400   1.008000   ; qtot 0.501737
 3633         c3    121    ccc     C3   3633 -0.15693500  12.010000   ; qtot 0.344802
 3634         h1    121    ccc     H5   3634 0.08499200   1.008000   ; qtot 0.429794
 3635         h1    121    ccc     H6   3635 0.08499200   1.008000   ; qtot 0.514786
 3636         n3    121    ccc     N1   3636 -0.29948700  14.010000   ; qtot 0.215299
 3637         c3    121    ccc     C4   3637 -0.01321200  12.010000   ; qtot 0.202087
 3638         h1    121    ccc     H7   3638 0.08172200   1.008000   ; qtot 0.283809
 3639         h1    121    ccc     H8   3639 0.08172200   1.008000   ; qtot 0.365531
 3640         c3    121    ccc     C5   3640 -0.22180000  12.010000   ; qtot 0.143731
 3641         hc    121    ccc     H9   3641 0.09671800   1.008000   ; qtot 0.240449
 3642         hc    121    ccc    H10   3642 0.09671800   1.008000   ; qtot 0.337167
 3643          c    121    ccc     C6   3643 0.526324  12.010000   ; qtot 1.333694
 3644          o    121    ccc     O1   3644 -0.39142825  16.000000   ; qtot 0.637188
 3645         oh    121    ccc     O2   3645 -0.56822625  16.000000   ; qtot -0.203623
 3646         ho    121    ccc    H11   3646 0.4186155   1.008000   ; qtot 0.322452
 3647         c3    121    ccc     C7   3647 -0.01321200  12.010000   ; qtot 0.309240
 3648         h1    121    ccc    H12   3648 0.08172200   1.008000   ; qtot 0.390962
 3649         h1    121    ccc    H13   3649 0.08172200   1.008000   ; qtot 0.472684
 3650         c3    121    ccc     C8   3650 -0.22180000  12.010000   ; qtot 0.250884
 3651         hc    121    ccc    H14   3651 0.09671800   1.008000   ; qtot 0.347602
 3652         hc    121    ccc    H15   3652 0.09671800   1.008000   ; qtot 0.444320
 3653          c    121    ccc     C9   3653 0.526324  12.010000   ; qtot 1.440847
 3654          o    121    ccc     O3   3654 -0.39142825  16.000000   ; qtot 0.744341
 3655         oh    121    ccc     O4   3655 -0.56822625  16.000000   ; qtot -0.096470
 3656         ho    121    ccc    H16   3656 0.4186155   1.008000   ; qtot 0.429605
 3657         os    121    ccc     O5   3657 -0.42966500  16.000000   ; qtot -0.000060
; residue  122 ccc rtp ccc q 0.0
 3658         c3    122    ccc     C1   3658 0.50749700  12.010000   ; qtot 0.507437
 3659         h1    122    ccc     H1   3659 -0.02808400   1.008000   ; qtot 0.479353
 3660         h1    122    ccc     H2   3660 -0.02808400   1.008000   ; qtot 0.451269
 3661         c3    122    ccc     C2   3661 -0.15486000  12.010000   ; qtot 0.296409
 3662         hc    122    ccc     H3   3662 0.10266400   1.008000   ; qtot 0.399073
 3663         hc    122    ccc     H4   3663 0.10266400   1.008000   ; qtot 0.501737
 3664         c3    122    ccc     C3   3664 -0.15693500  12.010000   ; qtot 0.344802
 3665         h1    122    ccc     H5   3665 0.08499200   1.008000   ; qtot 0.429794
 3666         h1    122    ccc     H6   3666 0.08499200   1.008000   ; qtot 0.514786
 3667         n3    122    ccc     N1   3667 -0.29948700  14.010000   ; qtot 0.215299
 3668         c3    122    ccc     C4   3668 -0.01321200  12.010000   ; qtot 0.202087
 3669         h1    122    ccc     H7   3669 0.08172200   1.008000   ; qtot 0.283809
 3670         h1    122    ccc     H8   3670 0.08172200   1.008000   ; qtot 0.365531
 3671         c3    122    ccc     C5   3671 -0.22180000  12.010000   ; qtot 0.143731
 3672         hc    122    ccc     H9   3672 0.09671800   1.008000   ; qtot 0.240449
 3673         hc    122    ccc    H10   3673 0.09671800   1.008000   ; qtot 0.337167
 3674          c    122    ccc     C6   3674 0.526324  12.010000   ; qtot 1.333694
 3675          o    122    ccc     O1   3675 -0.39142825  16.000000   ; qtot 0.637188
 3676         oh    122    ccc     O2   3676 -0.56822625  16.000000   ; qtot -0.203623
 3677         ho    122    ccc    H11   3677 0.4186155   1.008000   ; qtot 0.322452
 3678         c3    122    ccc     C7   3678 -0.01321200  12.010000   ; qtot 0.309240
 3679         h1    122    ccc    H12   3679 0.08172200   1.008000   ; qtot 0.390962
 3680         h1    122    ccc    H13   3680 0.08172200   1.008000   ; qtot 0.472684
 3681         c3    122    ccc     C8   3681 -0.22180000  12.010000   ; qtot 0.250884
 3682         hc    122    ccc    H14   3682 0.09671800   1.008000   ; qtot 0.347602
 3683         hc    122    ccc    H15   3683 0.09671800   1.008000   ; qtot 0.444320
 3684          c    122    ccc     C9   3684 0.526324  12.010000   ; qtot 1.440847
 3685          o    122    ccc     O3   3685 -0.39142825  16.000000   ; qtot 0.744341
 3686         oh    122    ccc     O4   3686 -0.56822625  16.000000   ; qtot -0.096470
 3687         ho    122    ccc    H16   3687 0.4186155   1.008000   ; qtot 0.429605
 3688         os    122    ccc     O5   3688 -0.42966500  16.000000   ; qtot -0.000060
; residue  123 ccc rtp ccc q 0.0
 3689         c3    123    ccc     C1   3689 0.50749700  12.010000   ; qtot 0.507437
 3690         h1    123    ccc     H1   3690 -0.02808400   1.008000   ; qtot 0.479353
 3691         h1    123    ccc     H2   3691 -0.02808400   1.008000   ; qtot 0.451269
 3692         c3    123    ccc     C2   3692 -0.15486000  12.010000   ; qtot 0.296409
 3693         hc    123    ccc     H3   3693 0.10266400   1.008000   ; qtot 0.399073
 3694         hc    123    ccc     H4   3694 0.10266400   1.008000   ; qtot 0.501737
 3695         c3    123    ccc     C3   3695 -0.15693500  12.010000   ; qtot 0.344802
 3696         h1    123    ccc     H5   3696 0.08499200   1.008000   ; qtot 0.429794
 3697         h1    123    ccc     H6   3697 0.08499200   1.008000   ; qtot 0.514786
 3698         n3    123    ccc     N1   3698 -0.29948700  14.010000   ; qtot 0.215299
 3699         c3    123    ccc     C4   3699 -0.01321200  12.010000   ; qtot 0.202087
 3700         h1    123    ccc     H7   3700 0.08172200   1.008000   ; qtot 0.283809
 3701         h1    123    ccc     H8   3701 0.08172200   1.008000   ; qtot 0.365531
 3702         c3    123    ccc     C5   3702 -0.22180000  12.010000   ; qtot 0.143731
 3703         hc    123    ccc     H9   3703 0.09671800   1.008000   ; qtot 0.240449
 3704         hc    123    ccc    H10   3704 0.09671800   1.008000   ; qtot 0.337167
 3705          c    123    ccc     C6   3705 0.526324  12.010000   ; qtot 1.333694
 3706          o    123    ccc     O1   3706 -0.39142825  16.000000   ; qtot 0.637188
 3707         oh    123    ccc     O2   3707 -0.56822625  16.000000   ; qtot -0.203623
 3708         ho    123    ccc    H11   3708 0.4186155   1.008000   ; qtot 0.322452
 3709         c3    123    ccc     C7   3709 -0.01321200  12.010000   ; qtot 0.309240
 3710         h1    123    ccc    H12   3710 0.08172200   1.008000   ; qtot 0.390962
 3711         h1    123    ccc    H13   3711 0.08172200   1.008000   ; qtot 0.472684
 3712         c3    123    ccc     C8   3712 -0.22180000  12.010000   ; qtot 0.250884
 3713         hc    123    ccc    H14   3713 0.09671800   1.008000   ; qtot 0.347602
 3714         hc    123    ccc    H15   3714 0.09671800   1.008000   ; qtot 0.444320
 3715          c    123    ccc     C9   3715 0.526324  12.010000   ; qtot 1.440847
 3716          o    123    ccc     O3   3716 -0.39142825  16.000000   ; qtot 0.744341
 3717         oh    123    ccc     O4   3717 -0.56822625  16.000000   ; qtot -0.096470
 3718         ho    123    ccc    H16   3718 0.4186155   1.008000   ; qtot 0.429605
 3719         os    123    ccc     O5   3719 -0.42966500  16.000000   ; qtot -0.000060
; residue  124 ccc rtp ccc q 0.0
 3720         c3    124    ccc     C1   3720 0.50749700  12.010000   ; qtot 0.507437
 3721         h1    124    ccc     H1   3721 -0.02808400   1.008000   ; qtot 0.479353
 3722         h1    124    ccc     H2   3722 -0.02808400   1.008000   ; qtot 0.451269
 3723         c3    124    ccc     C2   3723 -0.15486000  12.010000   ; qtot 0.296409
 3724         hc    124    ccc     H3   3724 0.10266400   1.008000   ; qtot 0.399073
 3725         hc    124    ccc     H4   3725 0.10266400   1.008000   ; qtot 0.501737
 3726         c3    124    ccc     C3   3726 -0.15693500  12.010000   ; qtot 0.344802
 3727         h1    124    ccc     H5   3727 0.08499200   1.008000   ; qtot 0.429794
 3728         h1    124    ccc     H6   3728 0.08499200   1.008000   ; qtot 0.514786
 3729         n3    124    ccc     N1   3729 -0.29948700  14.010000   ; qtot 0.215299
 3730         c3    124    ccc     C4   3730 -0.01321200  12.010000   ; qtot 0.202087
 3731         h1    124    ccc     H7   3731 0.08172200   1.008000   ; qtot 0.283809
 3732         h1    124    ccc     H8   3732 0.08172200   1.008000   ; qtot 0.365531
 3733         c3    124    ccc     C5   3733 -0.22180000  12.010000   ; qtot 0.143731
 3734         hc    124    ccc     H9   3734 0.09671800   1.008000   ; qtot 0.240449
 3735         hc    124    ccc    H10   3735 0.09671800   1.008000   ; qtot 0.337167
 3736          c    124    ccc     C6   3736 0.526324  12.010000   ; qtot 1.333694
 3737          o    124    ccc     O1   3737 -0.39142825  16.000000   ; qtot 0.637188
 3738         oh    124    ccc     O2   3738 -0.56822625  16.000000   ; qtot -0.203623
 3739         ho    124    ccc    H11   3739 0.4186155   1.008000   ; qtot 0.322452
 3740         c3    124    ccc     C7   3740 -0.01321200  12.010000   ; qtot 0.309240
 3741         h1    124    ccc    H12   3741 0.08172200   1.008000   ; qtot 0.390962
 3742         h1    124    ccc    H13   3742 0.08172200   1.008000   ; qtot 0.472684
 3743         c3    124    ccc     C8   3743 -0.22180000  12.010000   ; qtot 0.250884
 3744         hc    124    ccc    H14   3744 0.09671800   1.008000   ; qtot 0.347602
 3745         hc    124    ccc    H15   3745 0.09671800   1.008000   ; qtot 0.444320
 3746          c    124    ccc     C9   3746 0.526324  12.010000   ; qtot 1.440847
 3747          o    124    ccc     O3   3747 -0.39142825  16.000000   ; qtot 0.744341
 3748         oh    124    ccc     O4   3748 -0.56822625  16.000000   ; qtot -0.096470
 3749         ho    124    ccc    H16   3749 0.4186155   1.008000   ; qtot 0.429605
 3750         os    124    ccc     O5   3750 -0.42966500  16.000000   ; qtot -0.000060
; residue  125 ccc rtp ccc q 0.0
 3751         c3    125    ccc     C1   3751 0.50749700  12.010000   ; qtot 0.507437
 3752         h1    125    ccc     H1   3752 -0.02808400   1.008000   ; qtot 0.479353
 3753         h1    125    ccc     H2   3753 -0.02808400   1.008000   ; qtot 0.451269
 3754         c3    125    ccc     C2   3754 -0.15486000  12.010000   ; qtot 0.296409
 3755         hc    125    ccc     H3   3755 0.10266400   1.008000   ; qtot 0.399073
 3756         hc    125    ccc     H4   3756 0.10266400   1.008000   ; qtot 0.501737
 3757         c3    125    ccc     C3   3757 -0.15693500  12.010000   ; qtot 0.344802
 3758         h1    125    ccc     H5   3758 0.08499200   1.008000   ; qtot 0.429794
 3759         h1    125    ccc     H6   3759 0.08499200   1.008000   ; qtot 0.514786
 3760         n3    125    ccc     N1   3760 -0.29948700  14.010000   ; qtot 0.215299
 3761         c3    125    ccc     C4   3761 -0.01321200  12.010000   ; qtot 0.202087
 3762         h1    125    ccc     H7   3762 0.08172200   1.008000   ; qtot 0.283809
 3763         h1    125    ccc     H8   3763 0.08172200   1.008000   ; qtot 0.365531
 3764         c3    125    ccc     C5   3764 -0.22180000  12.010000   ; qtot 0.143731
 3765         hc    125    ccc     H9   3765 0.09671800   1.008000   ; qtot 0.240449
 3766         hc    125    ccc    H10   3766 0.09671800   1.008000   ; qtot 0.337167
 3767          c    125    ccc     C6   3767 0.526324  12.010000   ; qtot 1.333694
 3768          o    125    ccc     O1   3768 -0.39142825  16.000000   ; qtot 0.637188
 3769         oh    125    ccc     O2   3769 -0.56822625  16.000000   ; qtot -0.203623
 3770         ho    125    ccc    H11   3770 0.4186155   1.008000   ; qtot 0.322452
 3771         c3    125    ccc     C7   3771 -0.01321200  12.010000   ; qtot 0.309240
 3772         h1    125    ccc    H12   3772 0.08172200   1.008000   ; qtot 0.390962
 3773         h1    125    ccc    H13   3773 0.08172200   1.008000   ; qtot 0.472684
 3774         c3    125    ccc     C8   3774 -0.22180000  12.010000   ; qtot 0.250884
 3775         hc    125    ccc    H14   3775 0.09671800   1.008000   ; qtot 0.347602
 3776         hc    125    ccc    H15   3776 0.09671800   1.008000   ; qtot 0.444320
 3777          c    125    ccc     C9   3777 0.526324  12.010000   ; qtot 1.440847
 3778          o    125    ccc     O3   3778 -0.39142825  16.000000   ; qtot 0.744341
 3779         oh    125    ccc     O4   3779 -0.56822625  16.000000   ; qtot -0.096470
 3780         ho    125    ccc    H16   3780 0.4186155   1.008000   ; qtot 0.429605
 3781         os    125    ccc     O5   3781 -0.42966500  16.000000   ; qtot -0.000060

[ bonds ]
;    ai     aj funct         c0         c1         c2         c3
      1      2     1   0.14316 258236.480000
      1      5     1   0.14316 258236.480000
      2      8     1   0.15375 251793.120000
      5     11     1   0.15375 251793.120000
      8     14     1   0.15375 251793.120000
     11     17     1   0.15375 251793.120000
     14     20     1   0.14647 272713.120000
     17     21     1   0.14647 272713.120000
     20     28     1   0.14647 272713.120000
     20     31     1   0.14647 272713.120000
     21     22     1   0.14647 272713.120000
     21     25     1   0.14647 272713.120000
     22     34     1   0.15375 251793.120000
     25     37     1   0.15375 251793.120000
     28     40     1   0.15375 251793.120000
     31     43     1   0.15375 251793.120000
     34     55     1   0.15375 251793.120000
     37     52     1   0.15375 251793.120000
     40     49     1   0.15375 251793.120000
     43     46     1   0.15375 251793.120000
     46     86     1   0.14316 258236.480000
     49    115     1   0.14316 258236.480000
     52    144     1   0.14316 258236.480000
     55    173     1   0.14316 258236.480000
     58     59     1   0.14647 272713.120000
     58     62     1   0.14647 272713.120000
     58     65     1   0.14647 272713.120000
     59     71     1   0.15375 251793.120000
     62     74     1   0.15375 251793.120000
     65     68     1   0.15375 251793.120000
     68     77     1   0.15375 251793.120000
     71     83     1   0.15375 251793.120000
     74     80     1   0.15375 251793.120000
     77     86     1   0.14316 258236.480000
     80    202     1   0.14316 258236.480000
     83    231     1   0.14316 258236.480000
     87     88     1   0.14647 272713.120000
     87     91     1   0.14647 272713.120000
     87     94     1   0.14647 272713.120000
     88    100     1   0.15375 251793.120000
     91    103     1   0.15375 251793.120000
     94     97     1   0.15375 251793.120000
     97    106     1   0.15375 251793.120000
    100    112     1   0.15375 251793.120000
    103    109     1   0.15375 251793.120000
    106    115     1   0.14316 258236.480000
    109    260     1   0.14316 258236.480000
    112    289     1   0.14316 258236.480000
    116    117     1   0.14647 272713.120000
    116    120     1   0.14647 272713.120000
    116    123     1   0.14647 272713.120000
    117    129     1   0.15375 251793.120000
    120    132     1   0.15375 251793.120000
    123    126     1   0.15375 251793.120000
    126    135     1   0.15375 251793.120000
    129    141     1   0.15375 251793.120000
    132    138     1   0.15375 251793.120000
    135    144     1   0.14316 258236.480000
    138    318     1   0.14316 258236.480000
    141    347     1   0.14316 258236.480000
    145    146     1   0.14647 272713.120000
    145    149     1   0.14647 272713.120000
    145    152     1   0.14647 272713.120000
    146    158     1   0.15375 251793.120000
    149    161     1   0.15375 251793.120000
    152    155     1   0.15375 251793.120000
    155    164     1   0.15375 251793.120000
    158    170     1   0.15375 251793.120000
    161    167     1   0.15375 251793.120000
    164    173     1   0.14316 258236.480000
    167    376     1   0.14316 258236.480000
    170    405     1   0.14316 258236.480000
    174    175     1   0.14647 272713.120000
    174    178     1   0.14647 272713.120000
    174    181     1   0.14647 272713.120000
    175    187     1   0.15375 251793.120000
    178    190     1   0.15375 251793.120000
    181    184     1   0.15375 251793.120000
    184    193     1   0.15375 251793.120000
    187    199     1   0.15375 251793.120000
    190    196     1   0.15375 251793.120000
    193    202     1   0.14316 258236.480000
    196    434     1   0.14316 258236.480000
    199    463     1   0.14316 258236.480000
    203    204     1   0.14647 272713.120000
    203    207     1   0.14647 272713.120000
    203    210     1   0.14647 272713.120000
    204    216     1   0.15375 251793.120000
    207    219     1   0.15375 251793.120000
    210    213     1   0.15375 251793.120000
    213    222     1   0.15375 251793.120000
    216    228     1   0.15375 251793.120000
    219    225     1   0.15375 251793.120000
    222    231     1   0.14316 258236.480000
    225    492     1   0.14316 258236.480000
    228    521     1   0.14316 258236.480000
    232    233     1   0.14647 272713.120000
    232    236     1   0.14647 272713.120000
    232    239     1   0.14647 272713.120000
    233    245     1   0.15375 251793.120000
    236    248     1   0.15375 251793.120000
    239    242     1   0.15375 251793.120000
    242    251     1   0.15375 251793.120000
    245    257     1   0.15375 251793.120000
    248    254     1   0.15375 251793.120000
    251    260     1   0.14316 258236.480000
    254    550     1   0.14316 258236.480000
    257    579     1   0.14316 258236.480000
    261    262     1   0.14647 272713.120000
    261    265     1   0.14647 272713.120000
    261    268     1   0.14647 272713.120000
    262    274     1   0.15375 251793.120000
    265    277     1   0.15375 251793.120000
    268    271     1   0.15375 251793.120000
    271    280     1   0.15375 251793.120000
    274    286     1   0.15375 251793.120000
    277    283     1   0.15375 251793.120000
    280    289     1   0.14316 258236.480000
    283    608     1   0.14316 258236.480000
    286    637     1   0.14316 258236.480000
    290    291     1   0.14647 272713.120000
    290    294     1   0.14647 272713.120000
    290    297     1   0.14647 272713.120000
    291    303     1   0.15375 251793.120000
    294    306     1   0.15375 251793.120000
    297    300     1   0.15375 251793.120000
    300    309     1   0.15375 251793.120000
    303    315     1   0.15375 251793.120000
    306    312     1   0.15375 251793.120000
    309    318     1   0.14316 258236.480000
    312    666     1   0.14316 258236.480000
    315    695     1   0.14316 258236.480000
    319    320     1   0.14647 272713.120000
    319    323     1   0.14647 272713.120000
    319    326     1   0.14647 272713.120000
    320    332     1   0.15375 251793.120000
    323    335     1   0.15375 251793.120000
    326    329     1   0.15375 251793.120000
    329    338     1   0.15375 251793.120000
    332    344     1   0.15375 251793.120000
    335    341     1   0.15375 251793.120000
    338    347     1   0.14316 258236.480000
    341    724     1   0.14316 258236.480000
    344    753     1   0.14316 258236.480000
    348    349     1   0.14647 272713.120000
    348    352     1   0.14647 272713.120000
    348    355     1   0.14647 272713.120000
    349    361     1   0.15375 251793.120000
    352    364     1   0.15375 251793.120000
    355    358     1   0.15375 251793.120000
    358    367     1   0.15375 251793.120000
    361    373     1   0.15375 251793.120000
    364    370     1   0.15375 251793.120000
    367    376     1   0.14316 258236.480000
    370    782     1   0.14316 258236.480000
    373    811     1   0.14316 258236.480000
    377    378     1   0.14647 272713.120000
    377    381     1   0.14647 272713.120000
    377    384     1   0.14647 272713.120000
    378    390     1   0.15375 251793.120000
    381    393     1   0.15375 251793.120000
    384    387     1   0.15375 251793.120000
    387    396     1   0.15375 251793.120000
    390    402     1   0.15375 251793.120000
    393    399     1   0.15375 251793.120000
    396    405     1   0.14316 258236.480000
    399    840     1   0.14316 258236.480000
    402    869     1   0.14316 258236.480000
    406    407     1   0.14647 272713.120000
    406    410     1   0.14647 272713.120000
    406    413     1   0.14647 272713.120000
    407    419     1   0.15375 251793.120000
    410    422     1   0.15375 251793.120000
    413    416     1   0.15375 251793.120000
    416    425     1   0.15375 251793.120000
    419    431     1   0.15375 251793.120000
    422    428     1   0.15375 251793.120000
    425    434     1   0.14316 258236.480000
    428    898     1   0.14316 258236.480000
    431    927     1   0.14316 258236.480000
    435    436     1   0.14647 272713.120000
    435    439     1   0.14647 272713.120000
    435    442     1   0.14647 272713.120000
    436    448     1   0.15375 251793.120000
    439    451     1   0.15375 251793.120000
    442    445     1   0.15375 251793.120000
    445    454     1   0.15375 251793.120000
    448    460     1   0.15375 251793.120000
    451    457     1   0.15375 251793.120000
    454    463     1   0.14316 258236.480000
    457    956     1   0.14316 258236.480000
    460    985     1   0.14316 258236.480000
    464    465     1   0.14647 272713.120000
    464    468     1   0.14647 272713.120000
    464    471     1   0.14647 272713.120000
    465    477     1   0.15375 251793.120000
    468    480     1   0.15375 251793.120000
    471    474     1   0.15375 251793.120000
    474    483     1   0.15375 251793.120000
    477    489     1   0.15375 251793.120000
    480    486     1   0.15375 251793.120000
    483    492     1   0.14316 258236.480000
    486   1014     1   0.14316 258236.480000
    489   1043     1   0.14316 258236.480000
    493    494     1   0.14647 272713.120000
    493    497     1   0.14647 272713.120000
    493    500     1   0.14647 272713.120000
    494    506     1   0.15375 251793.120000
    497    509     1   0.15375 251793.120000
    500    503     1   0.15375 251793.120000
    503    512     1   0.15375 251793.120000
    506    518     1   0.15375 251793.120000
    509    515     1   0.15375 251793.120000
    512    521     1   0.14316 258236.480000
    515   1072     1   0.14316 258236.480000
    518   1101     1   0.14316 258236.480000
    522    523     1   0.14647 272713.120000
    522    526     1   0.14647 272713.120000
    522    529     1   0.14647 272713.120000
    523    535     1   0.15375 251793.120000
    526    538     1   0.15375 251793.120000
    529    532     1   0.15375 251793.120000
    532    541     1   0.15375 251793.120000
    535    547     1   0.15375 251793.120000
    538    544     1   0.15375 251793.120000
    541    550     1   0.14316 258236.480000
    544   1130     1   0.14316 258236.480000
    547   1159     1   0.14316 258236.480000
    551    552     1   0.14647 272713.120000
    551    555     1   0.14647 272713.120000
    551    558     1   0.14647 272713.120000
    552    564     1   0.15375 251793.120000
    555    567     1   0.15375 251793.120000
    558    561     1   0.15375 251793.120000
    561    570     1   0.15375 251793.120000
    564    576     1   0.15375 251793.120000
    567    573     1   0.15375 251793.120000
    570    579     1   0.14316 258236.480000
    573   1188     1   0.14316 258236.480000
    576   1217     1   0.14316 258236.480000
    580    581     1   0.14647 272713.120000
    580    584     1   0.14647 272713.120000
    580    587     1   0.14647 272713.120000
    581    593     1   0.15375 251793.120000
    584    596     1   0.15375 251793.120000
    587    590     1   0.15375 251793.120000
    590    599     1   0.15375 251793.120000
    593    605     1   0.15375 251793.120000
    596    602     1   0.15375 251793.120000
    599    608     1   0.14316 258236.480000
    602   1246     1   0.14316 258236.480000
    605   1275     1   0.14316 258236.480000
    609    610     1   0.14647 272713.120000
    609    613     1   0.14647 272713.120000
    609    616     1   0.14647 272713.120000
    610    622     1   0.15375 251793.120000
    613    625     1   0.15375 251793.120000
    616    619     1   0.15375 251793.120000
    619    628     1   0.15375 251793.120000
    622    634     1   0.15375 251793.120000
    625    631     1   0.15375 251793.120000
    628    637     1   0.14316 258236.480000
    631   1304     1   0.14316 258236.480000
    634   1333     1   0.14316 258236.480000
    638    639     1   0.14647 272713.120000
    638    642     1   0.14647 272713.120000
    638    645     1   0.14647 272713.120000
    639    651     1   0.15375 251793.120000
    642    654     1   0.15375 251793.120000
    645    648     1   0.15375 251793.120000
    648    657     1   0.15375 251793.120000
    651    663     1   0.15375 251793.120000
    654    660     1   0.15375 251793.120000
    657    666     1   0.14316 258236.480000
    660   1362     1   0.14316 258236.480000
    663   1391     1   0.14316 258236.480000
    667    668     1   0.14647 272713.120000
    667    671     1   0.14647 272713.120000
    667    674     1   0.14647 272713.120000
    668    680     1   0.15375 251793.120000
    671    683     1   0.15375 251793.120000
    674    677     1   0.15375 251793.120000
    677    686     1   0.15375 251793.120000
    680    692     1   0.15375 251793.120000
    683    689     1   0.15375 251793.120000
    686    695     1   0.14316 258236.480000
    689   1420     1   0.14316 258236.480000
    692   1449     1   0.14316 258236.480000
    696    697     1   0.14647 272713.120000
    696    700     1   0.14647 272713.120000
    696    703     1   0.14647 272713.120000
    697    709     1   0.15375 251793.120000
    700    712     1   0.15375 251793.120000
    703    706     1   0.15375 251793.120000
    706    715     1   0.15375 251793.120000
    709    721     1   0.15375 251793.120000
    712    718     1   0.15375 251793.120000
    715    724     1   0.14316 258236.480000
    718   1478     1   0.14316 258236.480000
    721   1507     1   0.14316 258236.480000
    725    726     1   0.14647 272713.120000
    725    729     1   0.14647 272713.120000
    725    732     1   0.14647 272713.120000
    726    738     1   0.15375 251793.120000
    729    741     1   0.15375 251793.120000
    732    735     1   0.15375 251793.120000
    735    744     1   0.15375 251793.120000
    738    750     1   0.15375 251793.120000
    741    747     1   0.15375 251793.120000
    744    753     1   0.14316 258236.480000
    747   1536     1   0.14316 258236.480000
    750   1565     1   0.14316 258236.480000
    754    755     1   0.14647 272713.120000
    754    758     1   0.14647 272713.120000
    754    761     1   0.14647 272713.120000
    755    767     1   0.15375 251793.120000
    758    770     1   0.15375 251793.120000
    761    764     1   0.15375 251793.120000
    764    773     1   0.15375 251793.120000
    767    779     1   0.15375 251793.120000
    770    776     1   0.15375 251793.120000
    773    782     1   0.14316 258236.480000
    776   1594     1   0.14316 258236.480000
    779   1623     1   0.14316 258236.480000
    783    784     1   0.14647 272713.120000
    783    787     1   0.14647 272713.120000
    783    790     1   0.14647 272713.120000
    784    796     1   0.15375 251793.120000
    787    799     1   0.15375 251793.120000
    790    793     1   0.15375 251793.120000
    793    802     1   0.15375 251793.120000
    796    808     1   0.15375 251793.120000
    799    805     1   0.15375 251793.120000
    802    811     1   0.14316 258236.480000
    805   1652     1   0.14316 258236.480000
    808   1681     1   0.14316 258236.480000
    812    813     1   0.14647 272713.120000
    812    816     1   0.14647 272713.120000
    812    819     1   0.14647 272713.120000
    813    825     1   0.15375 251793.120000
    816    828     1   0.15375 251793.120000
    819    822     1   0.15375 251793.120000
    822    831     1   0.15375 251793.120000
    825    837     1   0.15375 251793.120000
    828    834     1   0.15375 251793.120000
    831    840     1   0.14316 258236.480000
    834   1710     1   0.14316 258236.480000
    837   1739     1   0.14316 258236.480000
    841    842     1   0.14647 272713.120000
    841    845     1   0.14647 272713.120000
    841    848     1   0.14647 272713.120000
    842    854     1   0.15375 251793.120000
    845    857     1   0.15375 251793.120000
    848    851     1   0.15375 251793.120000
    851    860     1   0.15375 251793.120000
    854    866     1   0.15375 251793.120000
    857    863     1   0.15375 251793.120000
    860    869     1   0.14316 258236.480000
    863   1768     1   0.14316 258236.480000
    866   1797     1   0.14316 258236.480000
    870    871     1   0.14647 272713.120000
    870    874     1   0.14647 272713.120000
    870    877     1   0.14647 272713.120000
    871    883     1   0.15375 251793.120000
    874    886     1   0.15375 251793.120000
    877    880     1   0.15375 251793.120000
    880    889     1   0.15375 251793.120000
    883    895     1   0.15375 251793.120000
    886    892     1   0.15375 251793.120000
    889    898     1   0.14316 258236.480000
    892   1828     1   0.14316 258236.480000
    895   1859     1   0.14316 258236.480000
    899    900     1   0.14647 272713.120000
    899    903     1   0.14647 272713.120000
    899    906     1   0.14647 272713.120000
    900    912     1   0.15375 251793.120000
    903    915     1   0.15375 251793.120000
    906    909     1   0.15375 251793.120000
    909    918     1   0.15375 251793.120000
    912    924     1   0.15375 251793.120000
    915    921     1   0.15375 251793.120000
    918    927     1   0.14316 258236.480000
    921   1890     1   0.14316 258236.480000
    924   1921     1   0.14316 258236.480000
    928    929     1   0.14647 272713.120000
    928    932     1   0.14647 272713.120000
    928    935     1   0.14647 272713.120000
    929    941     1   0.15375 251793.120000
    932    944     1   0.15375 251793.120000
    935    938     1   0.15375 251793.120000
    938    947     1   0.15375 251793.120000
    941    953     1   0.15375 251793.120000
    944    950     1   0.15375 251793.120000
    947    956     1   0.14316 258236.480000
    950   1952     1   0.14316 258236.480000
    953   1983     1   0.14316 258236.480000
    957    958     1   0.14647 272713.120000
    957    961     1   0.14647 272713.120000
    957    964     1   0.14647 272713.120000
    958    970     1   0.15375 251793.120000
    961    973     1   0.15375 251793.120000
    964    967     1   0.15375 251793.120000
    967    976     1   0.15375 251793.120000
    970    982     1   0.15375 251793.120000
    973    979     1   0.15375 251793.120000
    976    985     1   0.14316 258236.480000
    979   2014     1   0.14316 258236.480000
    982   2045     1   0.14316 258236.480000
    986    987     1   0.14647 272713.120000
    986    990     1   0.14647 272713.120000
    986    993     1   0.14647 272713.120000
    987    999     1   0.15375 251793.120000
    990   1002     1   0.15375 251793.120000
    993    996     1   0.15375 251793.120000
    996   1005     1   0.15375 251793.120000
    999   1011     1   0.15375 251793.120000
   1002   1008     1   0.15375 251793.120000
   1005   1014     1   0.14316 258236.480000
   1008   2076     1   0.14316 258236.480000
   1011   2107     1   0.14316 258236.480000
   1015   1016     1   0.14647 272713.120000
   1015   1019     1   0.14647 272713.120000
   1015   1022     1   0.14647 272713.120000
   1016   1028     1   0.15375 251793.120000
   1019   1031     1   0.15375 251793.120000
   1022   1025     1   0.15375 251793.120000
   1025   1034     1   0.15375 251793.120000
   1028   1040     1   0.15375 251793.120000
   1031   1037     1   0.15375 251793.120000
   1034   1043     1   0.14316 258236.480000
   1037   2138     1   0.14316 258236.480000
   1040   2169     1   0.14316 258236.480000
   1044   1045     1   0.14647 272713.120000
   1044   1048     1   0.14647 272713.120000
   1044   1051     1   0.14647 272713.120000
   1045   1057     1   0.15375 251793.120000
   1048   1060     1   0.15375 251793.120000
   1051   1054     1   0.15375 251793.120000
   1054   1063     1   0.15375 251793.120000
   1057   1069     1   0.15375 251793.120000
   1060   1066     1   0.15375 251793.120000
   1063   1072     1   0.14316 258236.480000
   1066   2200     1   0.14316 258236.480000
   1069   2231     1   0.14316 258236.480000
   1073   1074     1   0.14647 272713.120000
   1073   1077     1   0.14647 272713.120000
   1073   1080     1   0.14647 272713.120000
   1074   1086     1   0.15375 251793.120000
   1077   1089     1   0.15375 251793.120000
   1080   1083     1   0.15375 251793.120000
   1083   1092     1   0.15375 251793.120000
   1086   1098     1   0.15375 251793.120000
   1089   1095     1   0.15375 251793.120000
   1092   1101     1   0.14316 258236.480000
   1095   2262     1   0.14316 258236.480000
   1098   2293     1   0.14316 258236.480000
   1102   1103     1   0.14647 272713.120000
   1102   1106     1   0.14647 272713.120000
   1102   1109     1   0.14647 272713.120000
   1103   1115     1   0.15375 251793.120000
   1106   1118     1   0.15375 251793.120000
   1109   1112     1   0.15375 251793.120000
   1112   1121     1   0.15375 251793.120000
   1115   1127     1   0.15375 251793.120000
   1118   1124     1   0.15375 251793.120000
   1121   1130     1   0.14316 258236.480000
   1124   2324     1   0.14316 258236.480000
   1127   2355     1   0.14316 258236.480000
   1131   1132     1   0.14647 272713.120000
   1131   1135     1   0.14647 272713.120000
   1131   1138     1   0.14647 272713.120000
   1132   1144     1   0.15375 251793.120000
   1135   1147     1   0.15375 251793.120000
   1138   1141     1   0.15375 251793.120000
   1141   1150     1   0.15375 251793.120000
   1144   1156     1   0.15375 251793.120000
   1147   1153     1   0.15375 251793.120000
   1150   1159     1   0.14316 258236.480000
   1153   2386     1   0.14316 258236.480000
   1156   2417     1   0.14316 258236.480000
   1160   1161     1   0.14647 272713.120000
   1160   1164     1   0.14647 272713.120000
   1160   1167     1   0.14647 272713.120000
   1161   1173     1   0.15375 251793.120000
   1164   1176     1   0.15375 251793.120000
   1167   1170     1   0.15375 251793.120000
   1170   1179     1   0.15375 251793.120000
   1173   1185     1   0.15375 251793.120000
   1176   1182     1   0.15375 251793.120000
   1179   1188     1   0.14316 258236.480000
   1182   2448     1   0.14316 258236.480000
   1185   2479     1   0.14316 258236.480000
   1189   1190     1   0.14647 272713.120000
   1189   1193     1   0.14647 272713.120000
   1189   1196     1   0.14647 272713.120000
   1190   1202     1   0.15375 251793.120000
   1193   1205     1   0.15375 251793.120000
   1196   1199     1   0.15375 251793.120000
   1199   1208     1   0.15375 251793.120000
   1202   1214     1   0.15375 251793.120000
   1205   1211     1   0.15375 251793.120000
   1208   1217     1   0.14316 258236.480000
   1211   2510     1   0.14316 258236.480000
   1214   2541     1   0.14316 258236.480000
   1218   1219     1   0.14647 272713.120000
   1218   1222     1   0.14647 272713.120000
   1218   1225     1   0.14647 272713.120000
   1219   1231     1   0.15375 251793.120000
   1222   1234     1   0.15375 251793.120000
   1225   1228     1   0.15375 251793.120000
   1228   1237     1   0.15375 251793.120000
   1231   1243     1   0.15375 251793.120000
   1234   1240     1   0.15375 251793.120000
   1237   1246     1   0.14316 258236.480000
   1240   2572     1   0.14316 258236.480000
   1243   2603     1   0.14316 258236.480000
   1247   1248     1   0.14647 272713.120000
   1247   1251     1   0.14647 272713.120000
   1247   1254     1   0.14647 272713.120000
   1248   1260     1   0.15375 251793.120000
   1251   1263     1   0.15375 251793.120000
   1254   1257     1   0.15375 251793.120000
   1257   1266     1   0.15375 251793.120000
   1260   1272     1   0.15375 251793.120000
   1263   1269     1   0.15375 251793.120000
   1266   1275     1   0.14316 258236.480000
   1269   2634     1   0.14316 258236.480000
   1272   2665     1   0.14316 258236.480000
   1276   1277     1   0.14647 272713.120000
   1276   1280     1   0.14647 272713.120000
   1276   1283     1   0.14647 272713.120000
   1277   1289     1   0.15375 251793.120000
   1280   1292     1   0.15375 251793.120000
   1283   1286     1   0.15375 251793.120000
   1286   1295     1   0.15375 251793.120000
   1289   1301     1   0.15375 251793.120000
   1292   1298     1   0.15375 251793.120000
   1295   1304     1   0.14316 258236.480000
   1298   2696     1   0.14316 258236.480000
   1301   2727     1   0.14316 258236.480000
   1305   1306     1   0.14647 272713.120000
   1305   1309     1   0.14647 272713.120000
   1305   1312     1   0.14647 272713.120000
   1306   1318     1   0.15375 251793.120000
   1309   1321     1   0.15375 251793.120000
   1312   1315     1   0.15375 251793.120000
   1315   1324     1   0.15375 251793.120000
   1318   1330     1   0.15375 251793.120000
   1321   1327     1   0.15375 251793.120000
   1324   1333     1   0.14316 258236.480000
   1327   2758     1   0.14316 258236.480000
   1330   2789     1   0.14316 258236.480000
   1334   1335     1   0.14647 272713.120000
   1334   1338     1   0.14647 272713.120000
   1334   1341     1   0.14647 272713.120000
   1335   1347     1   0.15375 251793.120000
   1338   1350     1   0.15375 251793.120000
   1341   1344     1   0.15375 251793.120000
   1344   1353     1   0.15375 251793.120000
   1347   1359     1   0.15375 251793.120000
   1350   1356     1   0.15375 251793.120000
   1353   1362     1   0.14316 258236.480000
   1356   2820     1   0.14316 258236.480000
   1359   2851     1   0.14316 258236.480000
   1363   1364     1   0.14647 272713.120000
   1363   1367     1   0.14647 272713.120000
   1363   1370     1   0.14647 272713.120000
   1364   1376     1   0.15375 251793.120000
   1367   1379     1   0.15375 251793.120000
   1370   1373     1   0.15375 251793.120000
   1373   1382     1   0.15375 251793.120000
   1376   1388     1   0.15375 251793.120000
   1379   1385     1   0.15375 251793.120000
   1382   1391     1   0.14316 258236.480000
   1385   2882     1   0.14316 258236.480000
   1388   2913     1   0.14316 258236.480000
   1392   1393     1   0.14647 272713.120000
   1392   1396     1   0.14647 272713.120000
   1392   1399     1   0.14647 272713.120000
   1393   1405     1   0.15375 251793.120000
   1396   1408     1   0.15375 251793.120000
   1399   1402     1   0.15375 251793.120000
   1402   1411     1   0.15375 251793.120000
   1405   1417     1   0.15375 251793.120000
   1408   1414     1   0.15375 251793.120000
   1411   1420     1   0.14316 258236.480000
   1414   2944     1   0.14316 258236.480000
   1417   2975     1   0.14316 258236.480000
   1421   1422     1   0.14647 272713.120000
   1421   1425     1   0.14647 272713.120000
   1421   1428     1   0.14647 272713.120000
   1422   1434     1   0.15375 251793.120000
   1425   1437     1   0.15375 251793.120000
   1428   1431     1   0.15375 251793.120000
   1431   1440     1   0.15375 251793.120000
   1434   1446     1   0.15375 251793.120000
   1437   1443     1   0.15375 251793.120000
   1440   1449     1   0.14316 258236.480000
   1443   3006     1   0.14316 258236.480000
   1446   3037     1   0.14316 258236.480000
   1450   1451     1   0.14647 272713.120000
   1450   1454     1   0.14647 272713.120000
   1450   1457     1   0.14647 272713.120000
   1451   1463     1   0.15375 251793.120000
   1454   1466     1   0.15375 251793.120000
   1457   1460     1   0.15375 251793.120000
   1460   1469     1   0.15375 251793.120000
   1463   1475     1   0.15375 251793.120000
   1466   1472     1   0.15375 251793.120000
   1469   1478     1   0.14316 258236.480000
   1472   3068     1   0.14316 258236.480000
   1475   3099     1   0.14316 258236.480000
   1479   1480     1   0.14647 272713.120000
   1479   1483     1   0.14647 272713.120000
   1479   1486     1   0.14647 272713.120000
   1480   1492     1   0.15375 251793.120000
   1483   1495     1   0.15375 251793.120000
   1486   1489     1   0.15375 251793.120000
   1489   1498     1   0.15375 251793.120000
   1492   1504     1   0.15375 251793.120000
   1495   1501     1   0.15375 251793.120000
   1498   1507     1   0.14316 258236.480000
   1501   3130     1   0.14316 258236.480000
   1504   3161     1   0.14316 258236.480000
   1508   1509     1   0.14647 272713.120000
   1508   1512     1   0.14647 272713.120000
   1508   1515     1   0.14647 272713.120000
   1509   1521     1   0.15375 251793.120000
   1512   1524     1   0.15375 251793.120000
   1515   1518     1   0.15375 251793.120000
   1518   1527     1   0.15375 251793.120000
   1521   1533     1   0.15375 251793.120000
   1524   1530     1   0.15375 251793.120000
   1527   1536     1   0.14316 258236.480000
   1530   3192     1   0.14316 258236.480000
   1533   3223     1   0.14316 258236.480000
   1537   1538     1   0.14647 272713.120000
   1537   1541     1   0.14647 272713.120000
   1537   1544     1   0.14647 272713.120000
   1538   1550     1   0.15375 251793.120000
   1541   1553     1   0.15375 251793.120000
   1544   1547     1   0.15375 251793.120000
   1547   1556     1   0.15375 251793.120000
   1550   1562     1   0.15375 251793.120000
   1553   1559     1   0.15375 251793.120000
   1556   1565     1   0.14316 258236.480000
   1559   3254     1   0.14316 258236.480000
   1562   3285     1   0.14316 258236.480000
   1566   1567     1   0.14647 272713.120000
   1566   1570     1   0.14647 272713.120000
   1566   1573     1   0.14647 272713.120000
   1567   1579     1   0.15375 251793.120000
   1570   1582     1   0.15375 251793.120000
   1573   1576     1   0.15375 251793.120000
   1576   1585     1   0.15375 251793.120000
   1579   1591     1   0.15375 251793.120000
   1582   1588     1   0.15375 251793.120000
   1585   1594     1   0.14316 258236.480000
   1588   3316     1   0.14316 258236.480000
   1591   3347     1   0.14316 258236.480000
   1595   1596     1   0.14647 272713.120000
   1595   1599     1   0.14647 272713.120000
   1595   1602     1   0.14647 272713.120000
   1596   1608     1   0.15375 251793.120000
   1599   1611     1   0.15375 251793.120000
   1602   1605     1   0.15375 251793.120000
   1605   1614     1   0.15375 251793.120000
   1608   1620     1   0.15375 251793.120000
   1611   1617     1   0.15375 251793.120000
   1614   1623     1   0.14316 258236.480000
   1617   3378     1   0.14316 258236.480000
   1620   3409     1   0.14316 258236.480000
   1624   1625     1   0.14647 272713.120000
   1624   1628     1   0.14647 272713.120000
   1624   1631     1   0.14647 272713.120000
   1625   1637     1   0.15375 251793.120000
   1628   1640     1   0.15375 251793.120000
   1631   1634     1   0.15375 251793.120000
   1634   1643     1   0.15375 251793.120000
   1637   1649     1   0.15375 251793.120000
   1640   1646     1   0.15375 251793.120000
   1643   1652     1   0.14316 258236.480000
   1646   3440     1   0.14316 258236.480000
   1649   3471     1   0.14316 258236.480000
   1653   1654     1   0.14647 272713.120000
   1653   1657     1   0.14647 272713.120000
   1653   1660     1   0.14647 272713.120000
   1654   1666     1   0.15375 251793.120000
   1657   1669     1   0.15375 251793.120000
   1660   1663     1   0.15375 251793.120000
   1663   1672     1   0.15375 251793.120000
   1666   1678     1   0.15375 251793.120000
   1669   1675     1   0.15375 251793.120000
   1672   1681     1   0.14316 258236.480000
   1675   3502     1   0.14316 258236.480000
   1678   3533     1   0.14316 258236.480000
   1682   1683     1   0.14647 272713.120000
   1682   1686     1   0.14647 272713.120000
   1682   1689     1   0.14647 272713.120000
   1683   1695     1   0.15375 251793.120000
   1686   1698     1   0.15375 251793.120000
   1689   1692     1   0.15375 251793.120000
   1692   1701     1   0.15375 251793.120000
   1695   1707     1   0.15375 251793.120000
   1698   1704     1   0.15375 251793.120000
   1701   1710     1   0.14316 258236.480000
   1704   3564     1   0.14316 258236.480000
   1707   3595     1   0.14316 258236.480000
   1711   1712     1   0.14647 272713.120000
   1711   1715     1   0.14647 272713.120000
   1711   1718     1   0.14647 272713.120000
   1712   1724     1   0.15375 251793.120000
   1715   1727     1   0.15375 251793.120000
   1718   1721     1   0.15375 251793.120000
   1721   1730     1   0.15375 251793.120000
   1724   1736     1   0.15375 251793.120000
   1727   1733     1   0.15375 251793.120000
   1730   1739     1   0.14316 258236.480000
   1733   3626     1   0.14316 258236.480000
   1736   3657     1   0.14316 258236.480000
   1740   1741     1   0.14647 272713.120000
   1740   1744     1   0.14647 272713.120000
   1740   1747     1   0.14647 272713.120000
   1741   1753     1   0.15375 251793.120000
   1744   1756     1   0.15375 251793.120000
   1747   1750     1   0.15375 251793.120000
   1750   1759     1   0.15375 251793.120000
   1753   1765     1   0.15375 251793.120000
   1756   1762     1   0.15375 251793.120000
   1759   1768     1   0.14316 258236.480000
   1762   3688     1   0.14316 258236.480000
   1765   3719     1   0.14316 258236.480000
   1769   1770     1   0.14647 272713.120000
   1769   1773     1   0.14647 272713.120000
   1769   1776     1   0.14647 272713.120000
   1770   1782     1   0.15375 251793.120000
   1773   1785     1   0.15375 251793.120000
   1776   1779     1   0.15375 251793.120000
   1779   1788     1   0.15375 251793.120000
   1782   1794     1   0.15375 251793.120000
   1785   1791     1   0.15375 251793.120000
   1788   1797     1   0.14316 258236.480000
   1791   3750     1   0.14316 258236.480000
   1794   3781     1   0.14316 258236.480000
   1798   1801     1   0.15375 251793.120000
   1798   1828     1   0.14316 258236.480000
   1801   1804     1   0.15375 251793.120000
   1804   1807     1   0.14647 272713.120000
   1807   1808     1   0.14647 272713.120000
   1807   1818     1   0.14647 272713.120000
   1808   1811     1   0.15375 251793.120000
   1811   1814     1   0.15241 261918.400000
   1814   1815     1   0.12183 533627.360000
   1814   1816     1   0.13513 334803.680000
   1818   1821     1   0.15375 251793.120000
   1821   1824     1   0.15241 261918.400000
   1824   1825     1   0.12183 533627.360000
   1824   1826     1   0.13513 334803.680000
   1829   1832     1   0.15375 251793.120000
   1829   1859     1   0.14316 258236.480000
   1832   1835     1   0.15375 251793.120000
   1835   1838     1   0.14647 272713.120000
   1838   1839     1   0.14647 272713.120000
   1838   1849     1   0.14647 272713.120000
   1839   1842     1   0.15375 251793.120000
   1842   1845     1   0.15241 261918.400000
   1845   1846     1   0.12183 533627.360000
   1845   1847     1   0.13513 334803.680000
   1849   1852     1   0.15375 251793.120000
   1852   1855     1   0.15241 261918.400000
   1855   1856     1   0.12183 533627.360000
   1855   1857     1   0.13513 334803.680000
   1860   1863     1   0.15375 251793.120000
   1860   1890     1   0.14316 258236.480000
   1863   1866     1   0.15375 251793.120000
   1866   1869     1   0.14647 272713.120000
   1869   1870     1   0.14647 272713.120000
   1869   1880     1   0.14647 272713.120000
   1870   1873     1   0.15375 251793.120000
   1873   1876     1   0.15241 261918.400000
   1876   1877     1   0.12183 533627.360000
   1876   1878     1   0.13513 334803.680000
   1880   1883     1   0.15375 251793.120000
   1883   1886     1   0.15241 261918.400000
   1886   1887     1   0.12183 533627.360000
   1886   1888     1   0.13513 334803.680000
   1891   1894     1   0.15375 251793.120000
   1891   1921     1   0.14316 258236.480000
   1894   1897     1   0.15375 251793.120000
   1897   1900     1   0.14647 272713.120000
   1900   1901     1   0.14647 272713.120000
   1900   1911     1   0.14647 272713.120000
   1901   1904     1   0.15375 251793.120000
   1904   1907     1   0.15241 261918.400000
   1907   1908     1   0.12183 533627.360000
   1907   1909     1   0.13513 334803.680000
   1911   1914     1   0.15375 251793.120000
   1914   1917     1   0.15241 261918.400000
   1917   1918     1   0.12183 533627.360000
   1917   1919     1   0.13513 334803.680000
   1922   1925     1   0.15375 251793.120000
   1922   1952     1   0.14316 258236.480000
   1925   1928     1   0.15375 251793.120000
   1928   1931     1   0.14647 272713.120000
   1931   1932     1   0.14647 272713.120000
   1931   1942     1   0.14647 272713.120000
   1932   1935     1   0.15375 251793.120000
   1935   1938     1   0.15241 261918.400000
   1938   1939     1   0.12183 533627.360000
   1938   1940     1   0.13513 334803.680000
   1942   1945     1   0.15375 251793.120000
   1945   1948     1   0.15241 261918.400000
   1948   1949     1   0.12183 533627.360000
   1948   1950     1   0.13513 334803.680000
   1953   1956     1   0.15375 251793.120000
   1953   1983     1   0.14316 258236.480000
   1956   1959     1   0.15375 251793.120000
   1959   1962     1   0.14647 272713.120000
   1962   1963     1   0.14647 272713.120000
   1962   1973     1   0.14647 272713.120000
   1963   1966     1   0.15375 251793.120000
   1966   1969     1   0.15241 261918.400000
   1969   1970     1   0.12183 533627.360000
   1969   1971     1   0.13513 334803.680000
   1973   1976     1   0.15375 251793.120000
   1976   1979     1   0.15241 261918.400000
   1979   1980     1   0.12183 533627.360000
   1979   1981     1   0.13513 334803.680000
   1984   1987     1   0.15375 251793.120000
   1984   2014     1   0.14316 258236.480000
   1987   1990     1   0.15375 251793.120000
   1990   1993     1   0.14647 272713.120000
   1993   1994     1   0.14647 272713.120000
   1993   2004     1   0.14647 272713.120000
   1994   1997     1   0.15375 251793.120000
   1997   2000     1   0.15241 261918.400000
   2000   2001     1   0.12183 533627.360000
   2000   2002     1   0.13513 334803.680000
   2004   2007     1   0.15375 251793.120000
   2007   2010     1   0.15241 261918.400000
   2010   2011     1   0.12183 533627.360000
   2010   2012     1   0.13513 334803.680000
   2015   2018     1   0.15375 251793.120000
   2015   2045     1   0.14316 258236.480000
   2018   2021     1   0.15375 251793.120000
   2021   2024     1   0.14647 272713.120000
   2024   2025     1   0.14647 272713.120000
   2024   2035     1   0.14647 272713.120000
   2025   2028     1   0.15375 251793.120000
   2028   2031     1   0.15241 261918.400000
   2031   2032     1   0.12183 533627.360000
   2031   2033     1   0.13513 334803.680000
   2035   2038     1   0.15375 251793.120000
   2038   2041     1   0.15241 261918.400000
   2041   2042     1   0.12183 533627.360000
   2041   2043     1   0.13513 334803.680000
   2046   2049     1   0.15375 251793.120000
   2046   2076     1   0.14316 258236.480000
   2049   2052     1   0.15375 251793.120000
   2052   2055     1   0.14647 272713.120000
   2055   2056     1   0.14647 272713.120000
   2055   2066     1   0.14647 272713.120000
   2056   2059     1   0.15375 251793.120000
   2059   2062     1   0.15241 261918.400000
   2062   2063     1   0.12183 533627.360000
   2062   2064     1   0.13513 334803.680000
   2066   2069     1   0.15375 251793.120000
   2069   2072     1   0.15241 261918.400000
   2072   2073     1   0.12183 533627.360000
   2072   2074     1   0.13513 334803.680000
   2077   2080     1   0.15375 251793.120000
   2077   2107     1   0.14316 258236.480000
   2080   2083     1   0.15375 251793.120000
   2083   2086     1   0.14647 272713.120000
   2086   2087     1   0.14647 272713.120000
   2086   2097     1   0.14647 272713.120000
   2087   2090     1   0.15375 251793.120000
   2090   2093     1   0.15241 261918.400000
   2093   2094     1   0.12183 533627.360000
   2093   2095     1   0.13513 334803.680000
   2097   2100     1   0.15375 251793.120000
   2100   2103     1   0.15241 261918.400000
   2103   2104     1   0.12183 533627.360000
   2103   2105     1   0.13513 334803.680000
   2108   2111     1   0.15375 251793.120000
   2108   2138     1   0.14316 258236.480000
   2111   2114     1   0.15375 251793.120000
   2114   2117     1   0.14647 272713.120000
   2117   2118     1   0.14647 272713.120000
   2117   2128     1   0.14647 272713.120000
   2118   2121     1   0.15375 251793.120000
   2121   2124     1   0.15241 261918.400000
   2124   2125     1   0.12183 533627.360000
   2124   2126     1   0.13513 334803.680000
   2128   2131     1   0.15375 251793.120000
   2131   2134     1   0.15241 261918.400000
   2134   2135     1   0.12183 533627.360000
   2134   2136     1   0.13513 334803.680000
   2139   2142     1   0.15375 251793.120000
   2139   2169     1   0.14316 258236.480000
   2142   2145     1   0.15375 251793.120000
   2145   2148     1   0.14647 272713.120000
   2148   2149     1   0.14647 272713.120000
   2148   2159     1   0.14647 272713.120000
   2149   2152     1   0.15375 251793.120000
   2152   2155     1   0.15241 261918.400000
   2155   2156     1   0.12183 533627.360000
   2155   2157     1   0.13513 334803.680000
   2159   2162     1   0.15375 251793.120000
   2162   2165     1   0.15241 261918.400000
   2165   2166     1   0.12183 533627.360000
   2165   2167     1   0.13513 334803.680000
   2170   2173     1   0.15375 251793.120000
   2170   2200     1   0.14316 258236.480000
   2173   2176     1   0.15375 251793.120000
   2176   2179     1   0.14647 272713.120000
   2179   2180     1   0.14647 272713.120000
   2179   2190     1   0.14647 272713.120000
   2180   2183     1   0.15375 251793.120000
   2183   2186     1   0.15241 261918.400000
   2186   2187     1   0.12183 533627.360000
   2186   2188     1   0.13513 334803.680000
   2190   2193     1   0.15375 251793.120000
   2193   2196     1   0.15241 261918.400000
   2196   2197     1   0.12183 533627.360000
   2196   2198     1   0.13513 334803.680000
   2201   2204     1   0.15375 251793.120000
   2201   2231     1   0.14316 258236.480000
   2204   2207     1   0.15375 251793.120000
   2207   2210     1   0.14647 272713.120000
   2210   2211     1   0.14647 272713.120000
   2210   2221     1   0.14647 272713.120000
   2211   2214     1   0.15375 251793.120000
   2214   2217     1   0.15241 261918.400000
   2217   2218     1   0.12183 533627.360000
   2217   2219     1   0.13513 334803.680000
   2221   2224     1   0.15375 251793.120000
   2224   2227     1   0.15241 261918.400000
   2227   2228     1   0.12183 533627.360000
   2227   2229     1   0.13513 334803.680000
   2232   2235     1   0.15375 251793.120000
   2232   2262     1   0.14316 258236.480000
   2235   2238     1   0.15375 251793.120000
   2238   2241     1   0.14647 272713.120000
   2241   2242     1   0.14647 272713.120000
   2241   2252     1   0.14647 272713.120000
   2242   2245     1   0.15375 251793.120000
   2245   2248     1   0.15241 261918.400000
   2248   2249     1   0.12183 533627.360000
   2248   2250     1   0.13513 334803.680000
   2252   2255     1   0.15375 251793.120000
   2255   2258     1   0.15241 261918.400000
   2258   2259     1   0.12183 533627.360000
   2258   2260     1   0.13513 334803.680000
   2263   2266     1   0.15375 251793.120000
   2263   2293     1   0.14316 258236.480000
   2266   2269     1   0.15375 251793.120000
   2269   2272     1   0.14647 272713.120000
   2272   2273     1   0.14647 272713.120000
   2272   2283     1   0.14647 272713.120000
   2273   2276     1   0.15375 251793.120000
   2276   2279     1   0.15241 261918.400000
   2279   2280     1   0.12183 533627.360000
   2279   2281     1   0.13513 334803.680000
   2283   2286     1   0.15375 251793.120000
   2286   2289     1   0.15241 261918.400000
   2289   2290     1   0.12183 533627.360000
   2289   2291     1   0.13513 334803.680000
   2294   2297     1   0.15375 251793.120000
   2294   2324     1   0.14316 258236.480000
   2297   2300     1   0.15375 251793.120000
   2300   2303     1   0.14647 272713.120000
   2303   2304     1   0.14647 272713.120000
   2303   2314     1   0.14647 272713.120000
   2304   2307     1   0.15375 251793.120000
   2307   2310     1   0.15241 261918.400000
   2310   2311     1   0.12183 533627.360000
   2310   2312     1   0.13513 334803.680000
   2314   2317     1   0.15375 251793.120000
   2317   2320     1   0.15241 261918.400000
   2320   2321     1   0.12183 533627.360000
   2320   2322     1   0.13513 334803.680000
   2325   2328     1   0.15375 251793.120000
   2325   2355     1   0.14316 258236.480000
   2328   2331     1   0.15375 251793.120000
   2331   2334     1   0.14647 272713.120000
   2334   2335     1   0.14647 272713.120000
   2334   2345     1   0.14647 272713.120000
   2335   2338     1   0.15375 251793.120000
   2338   2341     1   0.15241 261918.400000
   2341   2342     1   0.12183 533627.360000
   2341   2343     1   0.13513 334803.680000
   2345   2348     1   0.15375 251793.120000
   2348   2351     1   0.15241 261918.400000
   2351   2352     1   0.12183 533627.360000
   2351   2353     1   0.13513 334803.680000
   2356   2359     1   0.15375 251793.120000
   2356   2386     1   0.14316 258236.480000
   2359   2362     1   0.15375 251793.120000
   2362   2365     1   0.14647 272713.120000
   2365   2366     1   0.14647 272713.120000
   2365   2376     1   0.14647 272713.120000
   2366   2369     1   0.15375 251793.120000
   2369   2372     1   0.15241 261918.400000
   2372   2373     1   0.12183 533627.360000
   2372   2374     1   0.13513 334803.680000
   2376   2379     1   0.15375 251793.120000
   2379   2382     1   0.15241 261918.400000
   2382   2383     1   0.12183 533627.360000
   2382   2384     1   0.13513 334803.680000
   2387   2390     1   0.15375 251793.120000
   2387   2417     1   0.14316 258236.480000
   2390   2393     1   0.15375 251793.120000
   2393   2396     1   0.14647 272713.120000
   2396   2397     1   0.14647 272713.120000
   2396   2407     1   0.14647 272713.120000
   2397   2400     1   0.15375 251793.120000
   2400   2403     1   0.15241 261918.400000
   2403   2404     1   0.12183 533627.360000
   2403   2405     1   0.13513 334803.680000
   2407   2410     1   0.15375 251793.120000
   2410   2413     1   0.15241 261918.400000
   2413   2414     1   0.12183 533627.360000
   2413   2415     1   0.13513 334803.680000
   2418   2421     1   0.15375 251793.120000
   2418   2448     1   0.14316 258236.480000
   2421   2424     1   0.15375 251793.120000
   2424   2427     1   0.14647 272713.120000
   2427   2428     1   0.14647 272713.120000
   2427   2438     1   0.14647 272713.120000
   2428   2431     1   0.15375 251793.120000
   2431   2434     1   0.15241 261918.400000
   2434   2435     1   0.12183 533627.360000
   2434   2436     1   0.13513 334803.680000
   2438   2441     1   0.15375 251793.120000
   2441   2444     1   0.15241 261918.400000
   2444   2445     1   0.12183 533627.360000
   2444   2446     1   0.13513 334803.680000
   2449   2452     1   0.15375 251793.120000
   2449   2479     1   0.14316 258236.480000
   2452   2455     1   0.15375 251793.120000
   2455   2458     1   0.14647 272713.120000
   2458   2459     1   0.14647 272713.120000
   2458   2469     1   0.14647 272713.120000
   2459   2462     1   0.15375 251793.120000
   2462   2465     1   0.15241 261918.400000
   2465   2466     1   0.12183 533627.360000
   2465   2467     1   0.13513 334803.680000
   2469   2472     1   0.15375 251793.120000
   2472   2475     1   0.15241 261918.400000
   2475   2476     1   0.12183 533627.360000
   2475   2477     1   0.13513 334803.680000
   2480   2483     1   0.15375 251793.120000
   2480   2510     1   0.14316 258236.480000
   2483   2486     1   0.15375 251793.120000
   2486   2489     1   0.14647 272713.120000
   2489   2490     1   0.14647 272713.120000
   2489   2500     1   0.14647 272713.120000
   2490   2493     1   0.15375 251793.120000
   2493   2496     1   0.15241 261918.400000
   2496   2497     1   0.12183 533627.360000
   2496   2498     1   0.13513 334803.680000
   2500   2503     1   0.15375 251793.120000
   2503   2506     1   0.15241 261918.400000
   2506   2507     1   0.12183 533627.360000
   2506   2508     1   0.13513 334803.680000
   2511   2514     1   0.15375 251793.120000
   2511   2541     1   0.14316 258236.480000
   2514   2517     1   0.15375 251793.120000
   2517   2520     1   0.14647 272713.120000
   2520   2521     1   0.14647 272713.120000
   2520   2531     1   0.14647 272713.120000
   2521   2524     1   0.15375 251793.120000
   2524   2527     1   0.15241 261918.400000
   2527   2528     1   0.12183 533627.360000
   2527   2529     1   0.13513 334803.680000
   2531   2534     1   0.15375 251793.120000
   2534   2537     1   0.15241 261918.400000
   2537   2538     1   0.12183 533627.360000
   2537   2539     1   0.13513 334803.680000
   2542   2545     1   0.15375 251793.120000
   2542   2572     1   0.14316 258236.480000
   2545   2548     1   0.15375 251793.120000
   2548   2551     1   0.14647 272713.120000
   2551   2552     1   0.14647 272713.120000
   2551   2562     1   0.14647 272713.120000
   2552   2555     1   0.15375 251793.120000
   2555   2558     1   0.15241 261918.400000
   2558   2559     1   0.12183 533627.360000
   2558   2560     1   0.13513 334803.680000
   2562   2565     1   0.15375 251793.120000
   2565   2568     1   0.15241 261918.400000
   2568   2569     1   0.12183 533627.360000
   2568   2570     1   0.13513 334803.680000
   2573   2576     1   0.15375 251793.120000
   2573   2603     1   0.14316 258236.480000
   2576   2579     1   0.15375 251793.120000
   2579   2582     1   0.14647 272713.120000
   2582   2583     1   0.14647 272713.120000
   2582   2593     1   0.14647 272713.120000
   2583   2586     1   0.15375 251793.120000
   2586   2589     1   0.15241 261918.400000
   2589   2590     1   0.12183 533627.360000
   2589   2591     1   0.13513 334803.680000
   2593   2596     1   0.15375 251793.120000
   2596   2599     1   0.15241 261918.400000
   2599   2600     1   0.12183 533627.360000
   2599   2601     1   0.13513 334803.680000
   2604   2607     1   0.15375 251793.120000
   2604   2634     1   0.14316 258236.480000
   2607   2610     1   0.15375 251793.120000
   2610   2613     1   0.14647 272713.120000
   2613   2614     1   0.14647 272713.120000
   2613   2624     1   0.14647 272713.120000
   2614   2617     1   0.15375 251793.120000
   2617   2620     1   0.15241 261918.400000
   2620   2621     1   0.12183 533627.360000
   2620   2622     1   0.13513 334803.680000
   2624   2627     1   0.15375 251793.120000
   2627   2630     1   0.15241 261918.400000
   2630   2631     1   0.12183 533627.360000
   2630   2632     1   0.13513 334803.680000
   2635   2638     1   0.15375 251793.120000
   2635   2665     1   0.14316 258236.480000
   2638   2641     1   0.15375 251793.120000
   2641   2644     1   0.14647 272713.120000
   2644   2645     1   0.14647 272713.120000
   2644   2655     1   0.14647 272713.120000
   2645   2648     1   0.15375 251793.120000
   2648   2651     1   0.15241 261918.400000
   2651   2652     1   0.12183 533627.360000
   2651   2653     1   0.13513 334803.680000
   2655   2658     1   0.15375 251793.120000
   2658   2661     1   0.15241 261918.400000
   2661   2662     1   0.12183 533627.360000
   2661   2663     1   0.13513 334803.680000
   2666   2669     1   0.15375 251793.120000
   2666   2696     1   0.14316 258236.480000
   2669   2672     1   0.15375 251793.120000
   2672   2675     1   0.14647 272713.120000
   2675   2676     1   0.14647 272713.120000
   2675   2686     1   0.14647 272713.120000
   2676   2679     1   0.15375 251793.120000
   2679   2682     1   0.15241 261918.400000
   2682   2683     1   0.12183 533627.360000
   2682   2684     1   0.13513 334803.680000
   2686   2689     1   0.15375 251793.120000
   2689   2692     1   0.15241 261918.400000
   2692   2693     1   0.12183 533627.360000
   2692   2694     1   0.13513 334803.680000
   2697   2700     1   0.15375 251793.120000
   2697   2727     1   0.14316 258236.480000
   2700   2703     1   0.15375 251793.120000
   2703   2706     1   0.14647 272713.120000
   2706   2707     1   0.14647 272713.120000
   2706   2717     1   0.14647 272713.120000
   2707   2710     1   0.15375 251793.120000
   2710   2713     1   0.15241 261918.400000
   2713   2714     1   0.12183 533627.360000
   2713   2715     1   0.13513 334803.680000
   2717   2720     1   0.15375 251793.120000
   2720   2723     1   0.15241 261918.400000
   2723   2724     1   0.12183 533627.360000
   2723   2725     1   0.13513 334803.680000
   2728   2731     1   0.15375 251793.120000
   2728   2758     1   0.14316 258236.480000
   2731   2734     1   0.15375 251793.120000
   2734   2737     1   0.14647 272713.120000
   2737   2738     1   0.14647 272713.120000
   2737   2748     1   0.14647 272713.120000
   2738   2741     1   0.15375 251793.120000
   2741   2744     1   0.15241 261918.400000
   2744   2745     1   0.12183 533627.360000
   2744   2746     1   0.13513 334803.680000
   2748   2751     1   0.15375 251793.120000
   2751   2754     1   0.15241 261918.400000
   2754   2755     1   0.12183 533627.360000
   2754   2756     1   0.13513 334803.680000
   2759   2762     1   0.15375 251793.120000
   2759   2789     1   0.14316 258236.480000
   2762   2765     1   0.15375 251793.120000
   2765   2768     1   0.14647 272713.120000
   2768   2769     1   0.14647 272713.120000
   2768   2779     1   0.14647 272713.120000
   2769   2772     1   0.15375 251793.120000
   2772   2775     1   0.15241 261918.400000
   2775   2776     1   0.12183 533627.360000
   2775   2777     1   0.13513 334803.680000
   2779   2782     1   0.15375 251793.120000
   2782   2785     1   0.15241 261918.400000
   2785   2786     1   0.12183 533627.360000
   2785   2787     1   0.13513 334803.680000
   2790   2793     1   0.15375 251793.120000
   2790   2820     1   0.14316 258236.480000
   2793   2796     1   0.15375 251793.120000
   2796   2799     1   0.14647 272713.120000
   2799   2800     1   0.14647 272713.120000
   2799   2810     1   0.14647 272713.120000
   2800   2803     1   0.15375 251793.120000
   2803   2806     1   0.15241 261918.400000
   2806   2807     1   0.12183 533627.360000
   2806   2808     1   0.13513 334803.680000
   2810   2813     1   0.15375 251793.120000
   2813   2816     1   0.15241 261918.400000
   2816   2817     1   0.12183 533627.360000
   2816   2818     1   0.13513 334803.680000
   2821   2824     1   0.15375 251793.120000
   2821   2851     1   0.14316 258236.480000
   2824   2827     1   0.15375 251793.120000
   2827   2830     1   0.14647 272713.120000
   2830   2831     1   0.14647 272713.120000
   2830   2841     1   0.14647 272713.120000
   2831   2834     1   0.15375 251793.120000
   2834   2837     1   0.15241 261918.400000
   2837   2838     1   0.12183 533627.360000
   2837   2839     1   0.13513 334803.680000
   2841   2844     1   0.15375 251793.120000
   2844   2847     1   0.15241 261918.400000
   2847   2848     1   0.12183 533627.360000
   2847   2849     1   0.13513 334803.680000
   2852   2855     1   0.15375 251793.120000
   2852   2882     1   0.14316 258236.480000
   2855   2858     1   0.15375 251793.120000
   2858   2861     1   0.14647 272713.120000
   2861   2862     1   0.14647 272713.120000
   2861   2872     1   0.14647 272713.120000
   2862   2865     1   0.15375 251793.120000
   2865   2868     1   0.15241 261918.400000
   2868   2869     1   0.12183 533627.360000
   2868   2870     1   0.13513 334803.680000
   2872   2875     1   0.15375 251793.120000
   2875   2878     1   0.15241 261918.400000
   2878   2879     1   0.12183 533627.360000
   2878   2880     1   0.13513 334803.680000
   2883   2886     1   0.15375 251793.120000
   2883   2913     1   0.14316 258236.480000
   2886   2889     1   0.15375 251793.120000
   2889   2892     1   0.14647 272713.120000
   2892   2893     1   0.14647 272713.120000
   2892   2903     1   0.14647 272713.120000
   2893   2896     1   0.15375 251793.120000
   2896   2899     1   0.15241 261918.400000
   2899   2900     1   0.12183 533627.360000
   2899   2901     1   0.13513 334803.680000
   2903   2906     1   0.15375 251793.120000
   2906   2909     1   0.15241 261918.400000
   2909   2910     1   0.12183 533627.360000
   2909   2911     1   0.13513 334803.680000
   2914   2917     1   0.15375 251793.120000
   2914   2944     1   0.14316 258236.480000
   2917   2920     1   0.15375 251793.120000
   2920   2923     1   0.14647 272713.120000
   2923   2924     1   0.14647 272713.120000
   2923   2934     1   0.14647 272713.120000
   2924   2927     1   0.15375 251793.120000
   2927   2930     1   0.15241 261918.400000
   2930   2931     1   0.12183 533627.360000
   2930   2932     1   0.13513 334803.680000
   2934   2937     1   0.15375 251793.120000
   2937   2940     1   0.15241 261918.400000
   2940   2941     1   0.12183 533627.360000
   2940   2942     1   0.13513 334803.680000
   2945   2948     1   0.15375 251793.120000
   2945   2975     1   0.14316 258236.480000
   2948   2951     1   0.15375 251793.120000
   2951   2954     1   0.14647 272713.120000
   2954   2955     1   0.14647 272713.120000
   2954   2965     1   0.14647 272713.120000
   2955   2958     1   0.15375 251793.120000
   2958   2961     1   0.15241 261918.400000
   2961   2962     1   0.12183 533627.360000
   2961   2963     1   0.13513 334803.680000
   2965   2968     1   0.15375 251793.120000
   2968   2971     1   0.15241 261918.400000
   2971   2972     1   0.12183 533627.360000
   2971   2973     1   0.13513 334803.680000
   2976   2979     1   0.15375 251793.120000
   2976   3006     1   0.14316 258236.480000
   2979   2982     1   0.15375 251793.120000
   2982   2985     1   0.14647 272713.120000
   2985   2986     1   0.14647 272713.120000
   2985   2996     1   0.14647 272713.120000
   2986   2989     1   0.15375 251793.120000
   2989   2992     1   0.15241 261918.400000
   2992   2993     1   0.12183 533627.360000
   2992   2994     1   0.13513 334803.680000
   2996   2999     1   0.15375 251793.120000
   2999   3002     1   0.15241 261918.400000
   3002   3003     1   0.12183 533627.360000
   3002   3004     1   0.13513 334803.680000
   3007   3010     1   0.15375 251793.120000
   3007   3037     1   0.14316 258236.480000
   3010   3013     1   0.15375 251793.120000
   3013   3016     1   0.14647 272713.120000
   3016   3017     1   0.14647 272713.120000
   3016   3027     1   0.14647 272713.120000
   3017   3020     1   0.15375 251793.120000
   3020   3023     1   0.15241 261918.400000
   3023   3024     1   0.12183 533627.360000
   3023   3025     1   0.13513 334803.680000
   3027   3030     1   0.15375 251793.120000
   3030   3033     1   0.15241 261918.400000
   3033   3034     1   0.12183 533627.360000
   3033   3035     1   0.13513 334803.680000
   3038   3041     1   0.15375 251793.120000
   3038   3068     1   0.14316 258236.480000
   3041   3044     1   0.15375 251793.120000
   3044   3047     1   0.14647 272713.120000
   3047   3048     1   0.14647 272713.120000
   3047   3058     1   0.14647 272713.120000
   3048   3051     1   0.15375 251793.120000
   3051   3054     1   0.15241 261918.400000
   3054   3055     1   0.12183 533627.360000
   3054   3056     1   0.13513 334803.680000
   3058   3061     1   0.15375 251793.120000
   3061   3064     1   0.15241 261918.400000
   3064   3065     1   0.12183 533627.360000
   3064   3066     1   0.13513 334803.680000
   3069   3072     1   0.15375 251793.120000
   3069   3099     1   0.14316 258236.480000
   3072   3075     1   0.15375 251793.120000
   3075   3078     1   0.14647 272713.120000
   3078   3079     1   0.14647 272713.120000
   3078   3089     1   0.14647 272713.120000
   3079   3082     1   0.15375 251793.120000
   3082   3085     1   0.15241 261918.400000
   3085   3086     1   0.12183 533627.360000
   3085   3087     1   0.13513 334803.680000
   3089   3092     1   0.15375 251793.120000
   3092   3095     1   0.15241 261918.400000
   3095   3096     1   0.12183 533627.360000
   3095   3097     1   0.13513 334803.680000
   3100   3103     1   0.15375 251793.120000
   3100   3130     1   0.14316 258236.480000
   3103   3106     1   0.15375 251793.120000
   3106   3109     1   0.14647 272713.120000
   3109   3110     1   0.14647 272713.120000
   3109   3120     1   0.14647 272713.120000
   3110   3113     1   0.15375 251793.120000
   3113   3116     1   0.15241 261918.400000
   3116   3117     1   0.12183 533627.360000
   3116   3118     1   0.13513 334803.680000
   3120   3123     1   0.15375 251793.120000
   3123   3126     1   0.15241 261918.400000
   3126   3127     1   0.12183 533627.360000
   3126   3128     1   0.13513 334803.680000
   3131   3134     1   0.15375 251793.120000
   3131   3161     1   0.14316 258236.480000
   3134   3137     1   0.15375 251793.120000
   3137   3140     1   0.14647 272713.120000
   3140   3141     1   0.14647 272713.120000
   3140   3151     1   0.14647 272713.120000
   3141   3144     1   0.15375 251793.120000
   3144   3147     1   0.15241 261918.400000
   3147   3148     1   0.12183 533627.360000
   3147   3149     1   0.13513 334803.680000
   3151   3154     1   0.15375 251793.120000
   3154   3157     1   0.15241 261918.400000
   3157   3158     1   0.12183 533627.360000
   3157   3159     1   0.13513 334803.680000
   3162   3165     1   0.15375 251793.120000
   3162   3192     1   0.14316 258236.480000
   3165   3168     1   0.15375 251793.120000
   3168   3171     1   0.14647 272713.120000
   3171   3172     1   0.14647 272713.120000
   3171   3182     1   0.14647 272713.120000
   3172   3175     1   0.15375 251793.120000
   3175   3178     1   0.15241 261918.400000
   3178   3179     1   0.12183 533627.360000
   3178   3180     1   0.13513 334803.680000
   3182   3185     1   0.15375 251793.120000
   3185   3188     1   0.15241 261918.400000
   3188   3189     1   0.12183 533627.360000
   3188   3190     1   0.13513 334803.680000
   3193   3196     1   0.15375 251793.120000
   3193   3223     1   0.14316 258236.480000
   3196   3199     1   0.15375 251793.120000
   3199   3202     1   0.14647 272713.120000
   3202   3203     1   0.14647 272713.120000
   3202   3213     1   0.14647 272713.120000
   3203   3206     1   0.15375 251793.120000
   3206   3209     1   0.15241 261918.400000
   3209   3210     1   0.12183 533627.360000
   3209   3211     1   0.13513 334803.680000
   3213   3216     1   0.15375 251793.120000
   3216   3219     1   0.15241 261918.400000
   3219   3220     1   0.12183 533627.360000
   3219   3221     1   0.13513 334803.680000
   3224   3227     1   0.15375 251793.120000
   3224   3254     1   0.14316 258236.480000
   3227   3230     1   0.15375 251793.120000
   3230   3233     1   0.14647 272713.120000
   3233   3234     1   0.14647 272713.120000
   3233   3244     1   0.14647 272713.120000
   3234   3237     1   0.15375 251793.120000
   3237   3240     1   0.15241 261918.400000
   3240   3241     1   0.12183 533627.360000
   3240   3242     1   0.13513 334803.680000
   3244   3247     1   0.15375 251793.120000
   3247   3250     1   0.15241 261918.400000
   3250   3251     1   0.12183 533627.360000
   3250   3252     1   0.13513 334803.680000
   3255   3258     1   0.15375 251793.120000
   3255   3285     1   0.14316 258236.480000
   3258   3261     1   0.15375 251793.120000
   3261   3264     1   0.14647 272713.120000
   3264   3265     1   0.14647 272713.120000
   3264   3275     1   0.14647 272713.120000
   3265   3268     1   0.15375 251793.120000
   3268   3271     1   0.15241 261918.400000
   3271   3272     1   0.12183 533627.360000
   3271   3273     1   0.13513 334803.680000
   3275   3278     1   0.15375 251793.120000
   3278   3281     1   0.15241 261918.400000
   3281   3282     1   0.12183 533627.360000
   3281   3283     1   0.13513 334803.680000
   3286   3289     1   0.15375 251793.120000
   3286   3316     1   0.14316 258236.480000
   3289   3292     1   0.15375 251793.120000
   3292   3295     1   0.14647 272713.120000
   3295   3296     1   0.14647 272713.120000
   3295   3306     1   0.14647 272713.120000
   3296   3299     1   0.15375 251793.120000
   3299   3302     1   0.15241 261918.400000
   3302   3303     1   0.12183 533627.360000
   3302   3304     1   0.13513 334803.680000
   3306   3309     1   0.15375 251793.120000
   3309   3312     1   0.15241 261918.400000
   3312   3313     1   0.12183 533627.360000
   3312   3314     1   0.13513 334803.680000
   3317   3320     1   0.15375 251793.120000
   3317   3347     1   0.14316 258236.480000
   3320   3323     1   0.15375 251793.120000
   3323   3326     1   0.14647 272713.120000
   3326   3327     1   0.14647 272713.120000
   3326   3337     1   0.14647 272713.120000
   3327   3330     1   0.15375 251793.120000
   3330   3333     1   0.15241 261918.400000
   3333   3334     1   0.12183 533627.360000
   3333   3335     1   0.13513 334803.680000
   3337   3340     1   0.15375 251793.120000
   3340   3343     1   0.15241 261918.400000
   3343   3344     1   0.12183 533627.360000
   3343   3345     1   0.13513 334803.680000
   3348   3351     1   0.15375 251793.120000
   3348   3378     1   0.14316 258236.480000
   3351   3354     1   0.15375 251793.120000
   3354   3357     1   0.14647 272713.120000
   3357   3358     1   0.14647 272713.120000
   3357   3368     1   0.14647 272713.120000
   3358   3361     1   0.15375 251793.120000
   3361   3364     1   0.15241 261918.400000
   3364   3365     1   0.12183 533627.360000
   3364   3366     1   0.13513 334803.680000
   3368   3371     1   0.15375 251793.120000
   3371   3374     1   0.15241 261918.400000
   3374   3375     1   0.12183 533627.360000
   3374   3376     1   0.13513 334803.680000
   3379   3382     1   0.15375 251793.120000
   3379   3409     1   0.14316 258236.480000
   3382   3385     1   0.15375 251793.120000
   3385   3388     1   0.14647 272713.120000
   3388   3389     1   0.14647 272713.120000
   3388   3399     1   0.14647 272713.120000
   3389   3392     1   0.15375 251793.120000
   3392   3395     1   0.15241 261918.400000
   3395   3396     1   0.12183 533627.360000
   3395   3397     1   0.13513 334803.680000
   3399   3402     1   0.15375 251793.120000
   3402   3405     1   0.15241 261918.400000
   3405   3406     1   0.12183 533627.360000
   3405   3407     1   0.13513 334803.680000
   3410   3413     1   0.15375 251793.120000
   3410   3440     1   0.14316 258236.480000
   3413   3416     1   0.15375 251793.120000
   3416   3419     1   0.14647 272713.120000
   3419   3420     1   0.14647 272713.120000
   3419   3430     1   0.14647 272713.120000
   3420   3423     1   0.15375 251793.120000
   3423   3426     1   0.15241 261918.400000
   3426   3427     1   0.12183 533627.360000
   3426   3428     1   0.13513 334803.680000
   3430   3433     1   0.15375 251793.120000
   3433   3436     1   0.15241 261918.400000
   3436   3437     1   0.12183 533627.360000
   3436   3438     1   0.13513 334803.680000
   3441   3444     1   0.15375 251793.120000
   3441   3471     1   0.14316 258236.480000
   3444   3447     1   0.15375 251793.120000
   3447   3450     1   0.14647 272713.120000
   3450   3451     1   0.14647 272713.120000
   3450   3461     1   0.14647 272713.120000
   3451   3454     1   0.15375 251793.120000
   3454   3457     1   0.15241 261918.400000
   3457   3458     1   0.12183 533627.360000
   3457   3459     1   0.13513 334803.680000
   3461   3464     1   0.15375 251793.120000
   3464   3467     1   0.15241 261918.400000
   3467   3468     1   0.12183 533627.360000
   3467   3469     1   0.13513 334803.680000
   3472   3475     1   0.15375 251793.120000
   3472   3502     1   0.14316 258236.480000
   3475   3478     1   0.15375 251793.120000
   3478   3481     1   0.14647 272713.120000
   3481   3482     1   0.14647 272713.120000
   3481   3492     1   0.14647 272713.120000
   3482   3485     1   0.15375 251793.120000
   3485   3488     1   0.15241 261918.400000
   3488   3489     1   0.12183 533627.360000
   3488   3490     1   0.13513 334803.680000
   3492   3495     1   0.15375 251793.120000
   3495   3498     1   0.15241 261918.400000
   3498   3499     1   0.12183 533627.360000
   3498   3500     1   0.13513 334803.680000
   3503   3506     1   0.15375 251793.120000
   3503   3533     1   0.14316 258236.480000
   3506   3509     1   0.15375 251793.120000
   3509   3512     1   0.14647 272713.120000
   3512   3513     1   0.14647 272713.120000
   3512   3523     1   0.14647 272713.120000
   3513   3516     1   0.15375 251793.120000
   3516   3519     1   0.15241 261918.400000
   3519   3520     1   0.12183 533627.360000
   3519   3521     1   0.13513 334803.680000
   3523   3526     1   0.15375 251793.120000
   3526   3529     1   0.15241 261918.400000
   3529   3530     1   0.12183 533627.360000
   3529   3531     1   0.13513 334803.680000
   3534   3537     1   0.15375 251793.120000
   3534   3564     1   0.14316 258236.480000
   3537   3540     1   0.15375 251793.120000
   3540   3543     1   0.14647 272713.120000
   3543   3544     1   0.14647 272713.120000
   3543   3554     1   0.14647 272713.120000
   3544   3547     1   0.15375 251793.120000
   3547   3550     1   0.15241 261918.400000
   3550   3551     1   0.12183 533627.360000
   3550   3552     1   0.13513 334803.680000
   3554   3557     1   0.15375 251793.120000
   3557   3560     1   0.15241 261918.400000
   3560   3561     1   0.12183 533627.360000
   3560   3562     1   0.13513 334803.680000
   3565   3568     1   0.15375 251793.120000
   3565   3595     1   0.14316 258236.480000
   3568   3571     1   0.15375 251793.120000
   3571   3574     1   0.14647 272713.120000
   3574   3575     1   0.14647 272713.120000
   3574   3585     1   0.14647 272713.120000
   3575   3578     1   0.15375 251793.120000
   3578   3581     1   0.15241 261918.400000
   3581   3582     1   0.12183 533627.360000
   3581   3583     1   0.13513 334803.680000
   3585   3588     1   0.15375 251793.120000
   3588   3591     1   0.15241 261918.400000
   3591   3592     1   0.12183 533627.360000
   3591   3593     1   0.13513 334803.680000
   3596   3599     1   0.15375 251793.120000
   3596   3626     1   0.14316 258236.480000
   3599   3602     1   0.15375 251793.120000
   3602   3605     1   0.14647 272713.120000
   3605   3606     1   0.14647 272713.120000
   3605   3616     1   0.14647 272713.120000
   3606   3609     1   0.15375 251793.120000
   3609   3612     1   0.15241 261918.400000
   3612   3613     1   0.12183 533627.360000
   3612   3614     1   0.13513 334803.680000
   3616   3619     1   0.15375 251793.120000
   3619   3622     1   0.15241 261918.400000
   3622   3623     1   0.12183 533627.360000
   3622   3624     1   0.13513 334803.680000
   3627   3630     1   0.15375 251793.120000
   3627   3657     1   0.14316 258236.480000
   3630   3633     1   0.15375 251793.120000
   3633   3636     1   0.14647 272713.120000
   3636   3637     1   0.14647 272713.120000
   3636   3647     1   0.14647 272713.120000
   3637   3640     1   0.15375 251793.120000
   3640   3643     1   0.15241 261918.400000
   3643   3644     1   0.12183 533627.360000
   3643   3645     1   0.13513 334803.680000
   3647   3650     1   0.15375 251793.120000
   3650   3653     1   0.15241 261918.400000
   3653   3654     1   0.12183 533627.360000
   3653   3655     1   0.13513 334803.680000
   3658   3661     1   0.15375 251793.120000
   3658   3688     1   0.14316 258236.480000
   3661   3664     1   0.15375 251793.120000
   3664   3667     1   0.14647 272713.120000
   3667   3668     1   0.14647 272713.120000
   3667   3678     1   0.14647 272713.120000
   3668   3671     1   0.15375 251793.120000
   3671   3674     1   0.15241 261918.400000
   3674   3675     1   0.12183 533627.360000
   3674   3676     1   0.13513 334803.680000
   3678   3681     1   0.15375 251793.120000
   3681   3684     1   0.15241 261918.400000
   3684   3685     1   0.12183 533627.360000
   3684   3686     1   0.13513 334803.680000
   3689   3692     1   0.15375 251793.120000
   3689   3719     1   0.14316 258236.480000
   3692   3695     1   0.15375 251793.120000
   3695   3698     1   0.14647 272713.120000
   3698   3699     1   0.14647 272713.120000
   3698   3709     1   0.14647 272713.120000
   3699   3702     1   0.15375 251793.120000
   3702   3705     1   0.15241 261918.400000
   3705   3706     1   0.12183 533627.360000
   3705   3707     1   0.13513 334803.680000
   3709   3712     1   0.15375 251793.120000
   3712   3715     1   0.15241 261918.400000
   3715   3716     1   0.12183 533627.360000
   3715   3717     1   0.13513 334803.680000
   3720   3723     1   0.15375 251793.120000
   3720   3750     1   0.14316 258236.480000
   3723   3726     1   0.15375 251793.120000
   3726   3729     1   0.14647 272713.120000
   3729   3730     1   0.14647 272713.120000
   3729   3740     1   0.14647 272713.120000
   3730   3733     1   0.15375 251793.120000
   3733   3736     1   0.15241 261918.400000
   3736   3737     1   0.12183 533627.360000
   3736   3738     1   0.13513 334803.680000
   3740   3743     1   0.15375 251793.120000
   3743   3746     1   0.15241 261918.400000
   3746   3747     1   0.12183 533627.360000
   3746   3748     1   0.13513 334803.680000
   3751   3754     1   0.15375 251793.120000
   3751   3781     1   0.14316 258236.480000
   3754   3757     1   0.15375 251793.120000
   3757   3760     1   0.14647 272713.120000
   3760   3761     1   0.14647 272713.120000
   3760   3771     1   0.14647 272713.120000
   3761   3764     1   0.15375 251793.120000
   3764   3767     1   0.15241 261918.400000
   3767   3768     1   0.12183 533627.360000
   3767   3769     1   0.13513 334803.680000
   3771   3774     1   0.15375 251793.120000
   3774   3777     1   0.15241 261918.400000
   3777   3778     1   0.12183 533627.360000
   3777   3779     1   0.13513 334803.680000
      2      3     1   0.10969 276646.080000
      2      4     1   0.10969 276646.080000
      5      6     1   0.10969 276646.080000
      5      7     1   0.10969 276646.080000
      8      9     1   0.10969 276646.080000
      8     10     1   0.10969 276646.080000
     11     12     1   0.10969 276646.080000
     11     13     1   0.10969 276646.080000
     14     15     1   0.10969 276646.080000
     14     16     1   0.10969 276646.080000
     17     18     1   0.10969 276646.080000
     17     19     1   0.10969 276646.080000
     22     23     1   0.10969 276646.080000
     22     24     1   0.10969 276646.080000
     25     26     1   0.10969 276646.080000
     25     27     1   0.10969 276646.080000
     28     29     1   0.10969 276646.080000
     28     30     1   0.10969 276646.080000
     31     32     1   0.10969 276646.080000
     31     33     1   0.10969 276646.080000
     34     35     1   0.10969 276646.080000
     34     36     1   0.10969 276646.080000
     37     38     1   0.10969 276646.080000
     37     39     1   0.10969 276646.080000
     40     41     1   0.10969 276646.080000
     40     42     1   0.10969 276646.080000
     43     44     1   0.10969 276646.080000
     43     45     1   0.10969 276646.080000
     46     47     1   0.10969 276646.080000
     46     48     1   0.10969 276646.080000
     49     50     1   0.10969 276646.080000
     49     51     1   0.10969 276646.080000
     52     53     1   0.10969 276646.080000
     52     54     1   0.10969 276646.080000
     55     56     1   0.10969 276646.080000
     55     57     1   0.10969 276646.080000
     59     60     1   0.10969 276646.080000
     59     61     1   0.10969 276646.080000
     62     63     1   0.10969 276646.080000
     62     64     1   0.10969 276646.080000
     65     66     1   0.10969 276646.080000
     65     67     1   0.10969 276646.080000
     68     69     1   0.10969 276646.080000
     68     70     1   0.10969 276646.080000
     71     72     1   0.10969 276646.080000
     71     73     1   0.10969 276646.080000
     74     75     1   0.10969 276646.080000
     74     76     1   0.10969 276646.080000
     77     78     1   0.10969 276646.080000
     77     79     1   0.10969 276646.080000
     80     81     1   0.10969 276646.080000
     80     82     1   0.10969 276646.080000
     83     84     1   0.10969 276646.080000
     83     85     1   0.10969 276646.080000
     88     89     1   0.10969 276646.080000
     88     90     1   0.10969 276646.080000
     91     92     1   0.10969 276646.080000
     91     93     1   0.10969 276646.080000
     94     95     1   0.10969 276646.080000
     94     96     1   0.10969 276646.080000
     97     98     1   0.10969 276646.080000
     97     99     1   0.10969 276646.080000
    100    101     1   0.10969 276646.080000
    100    102     1   0.10969 276646.080000
    103    104     1   0.10969 276646.080000
    103    105     1   0.10969 276646.080000
    106    107     1   0.10969 276646.080000
    106    108     1   0.10969 276646.080000
    109    110     1   0.10969 276646.080000
    109    111     1   0.10969 276646.080000
    112    113     1   0.10969 276646.080000
    112    114     1   0.10969 276646.080000
    117    118     1   0.10969 276646.080000
    117    119     1   0.10969 276646.080000
    120    121     1   0.10969 276646.080000
    120    122     1   0.10969 276646.080000
    123    124     1   0.10969 276646.080000
    123    125     1   0.10969 276646.080000
    126    127     1   0.10969 276646.080000
    126    128     1   0.10969 276646.080000
    129    130     1   0.10969 276646.080000
    129    131     1   0.10969 276646.080000
    132    133     1   0.10969 276646.080000
    132    134     1   0.10969 276646.080000
    135    136     1   0.10969 276646.080000
    135    137     1   0.10969 276646.080000
    138    139     1   0.10969 276646.080000
    138    140     1   0.10969 276646.080000
    141    142     1   0.10969 276646.080000
    141    143     1   0.10969 276646.080000
    146    147     1   0.10969 276646.080000
    146    148     1   0.10969 276646.080000
    149    150     1   0.10969 276646.080000
    149    151     1   0.10969 276646.080000
    152    153     1   0.10969 276646.080000
    152    154     1   0.10969 276646.080000
    155    156     1   0.10969 276646.080000
    155    157     1   0.10969 276646.080000
    158    159     1   0.10969 276646.080000
    158    160     1   0.10969 276646.080000
    161    162     1   0.10969 276646.080000
    161    163     1   0.10969 276646.080000
    164    165     1   0.10969 276646.080000
    164    166     1   0.10969 276646.080000
    167    168     1   0.10969 276646.080000
    167    169     1   0.10969 276646.080000
    170    171     1   0.10969 276646.080000
    170    172     1   0.10969 276646.080000
    175    176     1   0.10969 276646.080000
    175    177     1   0.10969 276646.080000
    178    179     1   0.10969 276646.080000
    178    180     1   0.10969 276646.080000
    181    182     1   0.10969 276646.080000
    181    183     1   0.10969 276646.080000
    184    185     1   0.10969 276646.080000
    184    186     1   0.10969 276646.080000
    187    188     1   0.10969 276646.080000
    187    189     1   0.10969 276646.080000
    190    191     1   0.10969 276646.080000
    190    192     1   0.10969 276646.080000
    193    194     1   0.10969 276646.080000
    193    195     1   0.10969 276646.080000
    196    197     1   0.10969 276646.080000
    196    198     1   0.10969 276646.080000
    199    200     1   0.10969 276646.080000
    199    201     1   0.10969 276646.080000
    204    205     1   0.10969 276646.080000
    204    206     1   0.10969 276646.080000
    207    208     1   0.10969 276646.080000
    207    209     1   0.10969 276646.080000
    210    211     1   0.10969 276646.080000
    210    212     1   0.10969 276646.080000
    213    214     1   0.10969 276646.080000
    213    215     1   0.10969 276646.080000
    216    217     1   0.10969 276646.080000
    216    218     1   0.10969 276646.080000
    219    220     1   0.10969 276646.080000
    219    221     1   0.10969 276646.080000
    222    223     1   0.10969 276646.080000
    222    224     1   0.10969 276646.080000
    225    226     1   0.10969 276646.080000
    225    227     1   0.10969 276646.080000
    228    229     1   0.10969 276646.080000
    228    230     1   0.10969 276646.080000
    233    234     1   0.10969 276646.080000
    233    235     1   0.10969 276646.080000
    236    237     1   0.10969 276646.080000
    236    238     1   0.10969 276646.080000
    239    240     1   0.10969 276646.080000
    239    241     1   0.10969 276646.080000
    242    243     1   0.10969 276646.080000
    242    244     1   0.10969 276646.080000
    245    246     1   0.10969 276646.080000
    245    247     1   0.10969 276646.080000
    248    249     1   0.10969 276646.080000
    248    250     1   0.10969 276646.080000
    251    252     1   0.10969 276646.080000
    251    253     1   0.10969 276646.080000
    254    255     1   0.10969 276646.080000
    254    256     1   0.10969 276646.080000
    257    258     1   0.10969 276646.080000
    257    259     1   0.10969 276646.080000
    262    263     1   0.10969 276646.080000
    262    264     1   0.10969 276646.080000
    265    266     1   0.10969 276646.080000
    265    267     1   0.10969 276646.080000
    268    269     1   0.10969 276646.080000
    268    270     1   0.10969 276646.080000
    271    272     1   0.10969 276646.080000
    271    273     1   0.10969 276646.080000
    274    275     1   0.10969 276646.080000
    274    276     1   0.10969 276646.080000
    277    278     1   0.10969 276646.080000
    277    279     1   0.10969 276646.080000
    280    281     1   0.10969 276646.080000
    280    282     1   0.10969 276646.080000
    283    284     1   0.10969 276646.080000
    283    285     1   0.10969 276646.080000
    286    287     1   0.10969 276646.080000
    286    288     1   0.10969 276646.080000
    291    292     1   0.10969 276646.080000
    291    293     1   0.10969 276646.080000
    294    295     1   0.10969 276646.080000
    294    296     1   0.10969 276646.080000
    297    298     1   0.10969 276646.080000
    297    299     1   0.10969 276646.080000
    300    301     1   0.10969 276646.080000
    300    302     1   0.10969 276646.080000
    303    304     1   0.10969 276646.080000
    303    305     1   0.10969 276646.080000
    306    307     1   0.10969 276646.080000
    306    308     1   0.10969 276646.080000
    309    310     1   0.10969 276646.080000
    309    311     1   0.10969 276646.080000
    312    313     1   0.10969 276646.080000
    312    314     1   0.10969 276646.080000
    315    316     1   0.10969 276646.080000
    315    317     1   0.10969 276646.080000
    320    321     1   0.10969 276646.080000
    320    322     1   0.10969 276646.080000
    323    324     1   0.10969 276646.080000
    323    325     1   0.10969 276646.080000
    326    327     1   0.10969 276646.080000
    326    328     1   0.10969 276646.080000
    329    330     1   0.10969 276646.080000
    329    331     1   0.10969 276646.080000
    332    333     1   0.10969 276646.080000
    332    334     1   0.10969 276646.080000
    335    336     1   0.10969 276646.080000
    335    337     1   0.10969 276646.080000
    338    339     1   0.10969 276646.080000
    338    340     1   0.10969 276646.080000
    341    342     1   0.10969 276646.080000
    341    343     1   0.10969 276646.080000
    344    345     1   0.10969 276646.080000
    344    346     1   0.10969 276646.080000
    349    350     1   0.10969 276646.080000
    349    351     1   0.10969 276646.080000
    352    353     1   0.10969 276646.080000
    352    354     1   0.10969 276646.080000
    355    356     1   0.10969 276646.080000
    355    357     1   0.10969 276646.080000
    358    359     1   0.10969 276646.080000
    358    360     1   0.10969 276646.080000
    361    362     1   0.10969 276646.080000
    361    363     1   0.10969 276646.080000
    364    365     1   0.10969 276646.080000
    364    366     1   0.10969 276646.080000
    367    368     1   0.10969 276646.080000
    367    369     1   0.10969 276646.080000
    370    371     1   0.10969 276646.080000
    370    372     1   0.10969 276646.080000
    373    374     1   0.10969 276646.080000
    373    375     1   0.10969 276646.080000
    378    379     1   0.10969 276646.080000
    378    380     1   0.10969 276646.080000
    381    382     1   0.10969 276646.080000
    381    383     1   0.10969 276646.080000
    384    385     1   0.10969 276646.080000
    384    386     1   0.10969 276646.080000
    387    388     1   0.10969 276646.080000
    387    389     1   0.10969 276646.080000
    390    391     1   0.10969 276646.080000
    390    392     1   0.10969 276646.080000
    393    394     1   0.10969 276646.080000
    393    395     1   0.10969 276646.080000
    396    397     1   0.10969 276646.080000
    396    398     1   0.10969 276646.080000
    399    400     1   0.10969 276646.080000
    399    401     1   0.10969 276646.080000
    402    403     1   0.10969 276646.080000
    402    404     1   0.10969 276646.080000
    407    408     1   0.10969 276646.080000
    407    409     1   0.10969 276646.080000
    410    411     1   0.10969 276646.080000
    410    412     1   0.10969 276646.080000
    413    414     1   0.10969 276646.080000
    413    415     1   0.10969 276646.080000
    416    417     1   0.10969 276646.080000
    416    418     1   0.10969 276646.080000
    419    420     1   0.10969 276646.080000
    419    421     1   0.10969 276646.080000
    422    423     1   0.10969 276646.080000
    422    424     1   0.10969 276646.080000
    425    426     1   0.10969 276646.080000
    425    427     1   0.10969 276646.080000
    428    429     1   0.10969 276646.080000
    428    430     1   0.10969 276646.080000
    431    432     1   0.10969 276646.080000
    431    433     1   0.10969 276646.080000
    436    437     1   0.10969 276646.080000
    436    438     1   0.10969 276646.080000
    439    440     1   0.10969 276646.080000
    439    441     1   0.10969 276646.080000
    442    443     1   0.10969 276646.080000
    442    444     1   0.10969 276646.080000
    445    446     1   0.10969 276646.080000
    445    447     1   0.10969 276646.080000
    448    449     1   0.10969 276646.080000
    448    450     1   0.10969 276646.080000
    451    452     1   0.10969 276646.080000
    451    453     1   0.10969 276646.080000
    454    455     1   0.10969 276646.080000
    454    456     1   0.10969 276646.080000
    457    458     1   0.10969 276646.080000
    457    459     1   0.10969 276646.080000
    460    461     1   0.10969 276646.080000
    460    462     1   0.10969 276646.080000
    465    466     1   0.10969 276646.080000
    465    467     1   0.10969 276646.080000
    468    469     1   0.10969 276646.080000
    468    470     1   0.10969 276646.080000
    471    472     1   0.10969 276646.080000
    471    473     1   0.10969 276646.080000
    474    475     1   0.10969 276646.080000
    474    476     1   0.10969 276646.080000
    477    478     1   0.10969 276646.080000
    477    479     1   0.10969 276646.080000
    480    481     1   0.10969 276646.080000
    480    482     1   0.10969 276646.080000
    483    484     1   0.10969 276646.080000
    483    485     1   0.10969 276646.080000
    486    487     1   0.10969 276646.080000
    486    488     1   0.10969 276646.080000
    489    490     1   0.10969 276646.080000
    489    491     1   0.10969 276646.080000
    494    495     1   0.10969 276646.080000
    494    496     1   0.10969 276646.080000
    497    498     1   0.10969 276646.080000
    497    499     1   0.10969 276646.080000
    500    501     1   0.10969 276646.080000
    500    502     1   0.10969 276646.080000
    503    504     1   0.10969 276646.080000
    503    505     1   0.10969 276646.080000
    506    507     1   0.10969 276646.080000
    506    508     1   0.10969 276646.080000
    509    510     1   0.10969 276646.080000
    509    511     1   0.10969 276646.080000
    512    513     1   0.10969 276646.080000
    512    514     1   0.10969 276646.080000
    515    516     1   0.10969 276646.080000
    515    517     1   0.10969 276646.080000
    518    519     1   0.10969 276646.080000
    518    520     1   0.10969 276646.080000
    523    524     1   0.10969 276646.080000
    523    525     1   0.10969 276646.080000
    526    527     1   0.10969 276646.080000
    526    528     1   0.10969 276646.080000
    529    530     1   0.10969 276646.080000
    529    531     1   0.10969 276646.080000
    532    533     1   0.10969 276646.080000
    532    534     1   0.10969 276646.080000
    535    536     1   0.10969 276646.080000
    535    537     1   0.10969 276646.080000
    538    539     1   0.10969 276646.080000
    538    540     1   0.10969 276646.080000
    541    542     1   0.10969 276646.080000
    541    543     1   0.10969 276646.080000
    544    545     1   0.10969 276646.080000
    544    546     1   0.10969 276646.080000
    547    548     1   0.10969 276646.080000
    547    549     1   0.10969 276646.080000
    552    553     1   0.10969 276646.080000
    552    554     1   0.10969 276646.080000
    555    556     1   0.10969 276646.080000
    555    557     1   0.10969 276646.080000
    558    559     1   0.10969 276646.080000
    558    560     1   0.10969 276646.080000
    561    562     1   0.10969 276646.080000
    561    563     1   0.10969 276646.080000
    564    565     1   0.10969 276646.080000
    564    566     1   0.10969 276646.080000
    567    568     1   0.10969 276646.080000
    567    569     1   0.10969 276646.080000
    570    571     1   0.10969 276646.080000
    570    572     1   0.10969 276646.080000
    573    574     1   0.10969 276646.080000
    573    575     1   0.10969 276646.080000
    576    577     1   0.10969 276646.080000
    576    578     1   0.10969 276646.080000
    581    582     1   0.10969 276646.080000
    581    583     1   0.10969 276646.080000
    584    585     1   0.10969 276646.080000
    584    586     1   0.10969 276646.080000
    587    588     1   0.10969 276646.080000
    587    589     1   0.10969 276646.080000
    590    591     1   0.10969 276646.080000
    590    592     1   0.10969 276646.080000
    593    594     1   0.10969 276646.080000
    593    595     1   0.10969 276646.080000
    596    597     1   0.10969 276646.080000
    596    598     1   0.10969 276646.080000
    599    600     1   0.10969 276646.080000
    599    601     1   0.10969 276646.080000
    602    603     1   0.10969 276646.080000
    602    604     1   0.10969 276646.080000
    605    606     1   0.10969 276646.080000
    605    607     1   0.10969 276646.080000
    610    611     1   0.10969 276646.080000
    610    612     1   0.10969 276646.080000
    613    614     1   0.10969 276646.080000
    613    615     1   0.10969 276646.080000
    616    617     1   0.10969 276646.080000
    616    618     1   0.10969 276646.080000
    619    620     1   0.10969 276646.080000
    619    621     1   0.10969 276646.080000
    622    623     1   0.10969 276646.080000
    622    624     1   0.10969 276646.080000
    625    626     1   0.10969 276646.080000
    625    627     1   0.10969 276646.080000
    628    629     1   0.10969 276646.080000
    628    630     1   0.10969 276646.080000
    631    632     1   0.10969 276646.080000
    631    633     1   0.10969 276646.080000
    634    635     1   0.10969 276646.080000
    634    636     1   0.10969 276646.080000
    639    640     1   0.10969 276646.080000
    639    641     1   0.10969 276646.080000
    642    643     1   0.10969 276646.080000
    642    644     1   0.10969 276646.080000
    645    646     1   0.10969 276646.080000
    645    647     1   0.10969 276646.080000
    648    649     1   0.10969 276646.080000
    648    650     1   0.10969 276646.080000
    651    652     1   0.10969 276646.080000
    651    653     1   0.10969 276646.080000
    654    655     1   0.10969 276646.080000
    654    656     1   0.10969 276646.080000
    657    658     1   0.10969 276646.080000
    657    659     1   0.10969 276646.080000
    660    661     1   0.10969 276646.080000
    660    662     1   0.10969 276646.080000
    663    664     1   0.10969 276646.080000
    663    665     1   0.10969 276646.080000
    668    669     1   0.10969 276646.080000
    668    670     1   0.10969 276646.080000
    671    672     1   0.10969 276646.080000
    671    673     1   0.10969 276646.080000
    674    675     1   0.10969 276646.080000
    674    676     1   0.10969 276646.080000
    677    678     1   0.10969 276646.080000
    677    679     1   0.10969 276646.080000
    680    681     1   0.10969 276646.080000
    680    682     1   0.10969 276646.080000
    683    684     1   0.10969 276646.080000
    683    685     1   0.10969 276646.080000
    686    687     1   0.10969 276646.080000
    686    688     1   0.10969 276646.080000
    689    690     1   0.10969 276646.080000
    689    691     1   0.10969 276646.080000
    692    693     1   0.10969 276646.080000
    692    694     1   0.10969 276646.080000
    697    698     1   0.10969 276646.080000
    697    699     1   0.10969 276646.080000
    700    701     1   0.10969 276646.080000
    700    702     1   0.10969 276646.080000
    703    704     1   0.10969 276646.080000
    703    705     1   0.10969 276646.080000
    706    707     1   0.10969 276646.080000
    706    708     1   0.10969 276646.080000
    709    710     1   0.10969 276646.080000
    709    711     1   0.10969 276646.080000
    712    713     1   0.10969 276646.080000
    712    714     1   0.10969 276646.080000
    715    716     1   0.10969 276646.080000
    715    717     1   0.10969 276646.080000
    718    719     1   0.10969 276646.080000
    718    720     1   0.10969 276646.080000
    721    722     1   0.10969 276646.080000
    721    723     1   0.10969 276646.080000
    726    727     1   0.10969 276646.080000
    726    728     1   0.10969 276646.080000
    729    730     1   0.10969 276646.080000
    729    731     1   0.10969 276646.080000
    732    733     1   0.10969 276646.080000
    732    734     1   0.10969 276646.080000
    735    736     1   0.10969 276646.080000
    735    737     1   0.10969 276646.080000
    738    739     1   0.10969 276646.080000
    738    740     1   0.10969 276646.080000
    741    742     1   0.10969 276646.080000
    741    743     1   0.10969 276646.080000
    744    745     1   0.10969 276646.080000
    744    746     1   0.10969 276646.080000
    747    748     1   0.10969 276646.080000
    747    749     1   0.10969 276646.080000
    750    751     1   0.10969 276646.080000
    750    752     1   0.10969 276646.080000
    755    756     1   0.10969 276646.080000
    755    757     1   0.10969 276646.080000
    758    759     1   0.10969 276646.080000
    758    760     1   0.10969 276646.080000
    761    762     1   0.10969 276646.080000
    761    763     1   0.10969 276646.080000
    764    765     1   0.10969 276646.080000
    764    766     1   0.10969 276646.080000
    767    768     1   0.10969 276646.080000
    767    769     1   0.10969 276646.080000
    770    771     1   0.10969 276646.080000
    770    772     1   0.10969 276646.080000
    773    774     1   0.10969 276646.080000
    773    775     1   0.10969 276646.080000
    776    777     1   0.10969 276646.080000
    776    778     1   0.10969 276646.080000
    779    780     1   0.10969 276646.080000
    779    781     1   0.10969 276646.080000
    784    785     1   0.10969 276646.080000
    784    786     1   0.10969 276646.080000
    787    788     1   0.10969 276646.080000
    787    789     1   0.10969 276646.080000
    790    791     1   0.10969 276646.080000
    790    792     1   0.10969 276646.080000
    793    794     1   0.10969 276646.080000
    793    795     1   0.10969 276646.080000
    796    797     1   0.10969 276646.080000
    796    798     1   0.10969 276646.080000
    799    800     1   0.10969 276646.080000
    799    801     1   0.10969 276646.080000
    802    803     1   0.10969 276646.080000
    802    804     1   0.10969 276646.080000
    805    806     1   0.10969 276646.080000
    805    807     1   0.10969 276646.080000
    808    809     1   0.10969 276646.080000
    808    810     1   0.10969 276646.080000
    813    814     1   0.10969 276646.080000
    813    815     1   0.10969 276646.080000
    816    817     1   0.10969 276646.080000
    816    818     1   0.10969 276646.080000
    819    820     1   0.10969 276646.080000
    819    821     1   0.10969 276646.080000
    822    823     1   0.10969 276646.080000
    822    824     1   0.10969 276646.080000
    825    826     1   0.10969 276646.080000
    825    827     1   0.10969 276646.080000
    828    829     1   0.10969 276646.080000
    828    830     1   0.10969 276646.080000
    831    832     1   0.10969 276646.080000
    831    833     1   0.10969 276646.080000
    834    835     1   0.10969 276646.080000
    834    836     1   0.10969 276646.080000
    837    838     1   0.10969 276646.080000
    837    839     1   0.10969 276646.080000
    842    843     1   0.10969 276646.080000
    842    844     1   0.10969 276646.080000
    845    846     1   0.10969 276646.080000
    845    847     1   0.10969 276646.080000
    848    849     1   0.10969 276646.080000
    848    850     1   0.10969 276646.080000
    851    852     1   0.10969 276646.080000
    851    853     1   0.10969 276646.080000
    854    855     1   0.10969 276646.080000
    854    856     1   0.10969 276646.080000
    857    858     1   0.10969 276646.080000
    857    859     1   0.10969 276646.080000
    860    861     1   0.10969 276646.080000
    860    862     1   0.10969 276646.080000
    863    864     1   0.10969 276646.080000
    863    865     1   0.10969 276646.080000
    866    867     1   0.10969 276646.080000
    866    868     1   0.10969 276646.080000
    871    872     1   0.10969 276646.080000
    871    873     1   0.10969 276646.080000
    874    875     1   0.10969 276646.080000
    874    876     1   0.10969 276646.080000
    877    878     1   0.10969 276646.080000
    877    879     1   0.10969 276646.080000
    880    881     1   0.10969 276646.080000
    880    882     1   0.10969 276646.080000
    883    884     1   0.10969 276646.080000
    883    885     1   0.10969 276646.080000
    886    887     1   0.10969 276646.080000
    886    888     1   0.10969 276646.080000
    889    890     1   0.10969 276646.080000
    889    891     1   0.10969 276646.080000
    892    893     1   0.10969 276646.080000
    892    894     1   0.10969 276646.080000
    895    896     1   0.10969 276646.080000
    895    897     1   0.10969 276646.080000
    900    901     1   0.10969 276646.080000
    900    902     1   0.10969 276646.080000
    903    904     1   0.10969 276646.080000
    903    905     1   0.10969 276646.080000
    906    907     1   0.10969 276646.080000
    906    908     1   0.10969 276646.080000
    909    910     1   0.10969 276646.080000
    909    911     1   0.10969 276646.080000
    912    913     1   0.10969 276646.080000
    912    914     1   0.10969 276646.080000
    915    916     1   0.10969 276646.080000
    915    917     1   0.10969 276646.080000
    918    919     1   0.10969 276646.080000
    918    920     1   0.10969 276646.080000
    921    922     1   0.10969 276646.080000
    921    923     1   0.10969 276646.080000
    924    925     1   0.10969 276646.080000
    924    926     1   0.10969 276646.080000
    929    930     1   0.10969 276646.080000
    929    931     1   0.10969 276646.080000
    932    933     1   0.10969 276646.080000
    932    934     1   0.10969 276646.080000
    935    936     1   0.10969 276646.080000
    935    937     1   0.10969 276646.080000
    938    939     1   0.10969 276646.080000
    938    940     1   0.10969 276646.080000
    941    942     1   0.10969 276646.080000
    941    943     1   0.10969 276646.080000
    944    945     1   0.10969 276646.080000
    944    946     1   0.10969 276646.080000
    947    948     1   0.10969 276646.080000
    947    949     1   0.10969 276646.080000
    950    951     1   0.10969 276646.080000
    950    952     1   0.10969 276646.080000
    953    954     1   0.10969 276646.080000
    953    955     1   0.10969 276646.080000
    958    959     1   0.10969 276646.080000
    958    960     1   0.10969 276646.080000
    961    962     1   0.10969 276646.080000
    961    963     1   0.10969 276646.080000
    964    965     1   0.10969 276646.080000
    964    966     1   0.10969 276646.080000
    967    968     1   0.10969 276646.080000
    967    969     1   0.10969 276646.080000
    970    971     1   0.10969 276646.080000
    970    972     1   0.10969 276646.080000
    973    974     1   0.10969 276646.080000
    973    975     1   0.10969 276646.080000
    976    977     1   0.10969 276646.080000
    976    978     1   0.10969 276646.080000
    979    980     1   0.10969 276646.080000
    979    981     1   0.10969 276646.080000
    982    983     1   0.10969 276646.080000
    982    984     1   0.10969 276646.080000
    987    988     1   0.10969 276646.080000
    987    989     1   0.10969 276646.080000
    990    991     1   0.10969 276646.080000
    990    992     1   0.10969 276646.080000
    993    994     1   0.10969 276646.080000
    993    995     1   0.10969 276646.080000
    996    997     1   0.10969 276646.080000
    996    998     1   0.10969 276646.080000
    999   1000     1   0.10969 276646.080000
    999   1001     1   0.10969 276646.080000
   1002   1003     1   0.10969 276646.080000
   1002   1004     1   0.10969 276646.080000
   1005   1006     1   0.10969 276646.080000
   1005   1007     1   0.10969 276646.080000
   1008   1009     1   0.10969 276646.080000
   1008   1010     1   0.10969 276646.080000
   1011   1012     1   0.10969 276646.080000
   1011   1013     1   0.10969 276646.080000
   1016   1017     1   0.10969 276646.080000
   1016   1018     1   0.10969 276646.080000
   1019   1020     1   0.10969 276646.080000
   1019   1021     1   0.10969 276646.080000
   1022   1023     1   0.10969 276646.080000
   1022   1024     1   0.10969 276646.080000
   1025   1026     1   0.10969 276646.080000
   1025   1027     1   0.10969 276646.080000
   1028   1029     1   0.10969 276646.080000
   1028   1030     1   0.10969 276646.080000
   1031   1032     1   0.10969 276646.080000
   1031   1033     1   0.10969 276646.080000
   1034   1035     1   0.10969 276646.080000
   1034   1036     1   0.10969 276646.080000
   1037   1038     1   0.10969 276646.080000
   1037   1039     1   0.10969 276646.080000
   1040   1041     1   0.10969 276646.080000
   1040   1042     1   0.10969 276646.080000
   1045   1046     1   0.10969 276646.080000
   1045   1047     1   0.10969 276646.080000
   1048   1049     1   0.10969 276646.080000
   1048   1050     1   0.10969 276646.080000
   1051   1052     1   0.10969 276646.080000
   1051   1053     1   0.10969 276646.080000
   1054   1055     1   0.10969 276646.080000
   1054   1056     1   0.10969 276646.080000
   1057   1058     1   0.10969 276646.080000
   1057   1059     1   0.10969 276646.080000
   1060   1061     1   0.10969 276646.080000
   1060   1062     1   0.10969 276646.080000
   1063   1064     1   0.10969 276646.080000
   1063   1065     1   0.10969 276646.080000
   1066   1067     1   0.10969 276646.080000
   1066   1068     1   0.10969 276646.080000
   1069   1070     1   0.10969 276646.080000
   1069   1071     1   0.10969 276646.080000
   1074   1075     1   0.10969 276646.080000
   1074   1076     1   0.10969 276646.080000
   1077   1078     1   0.10969 276646.080000
   1077   1079     1   0.10969 276646.080000
   1080   1081     1   0.10969 276646.080000
   1080   1082     1   0.10969 276646.080000
   1083   1084     1   0.10969 276646.080000
   1083   1085     1   0.10969 276646.080000
   1086   1087     1   0.10969 276646.080000
   1086   1088     1   0.10969 276646.080000
   1089   1090     1   0.10969 276646.080000
   1089   1091     1   0.10969 276646.080000
   1092   1093     1   0.10969 276646.080000
   1092   1094     1   0.10969 276646.080000
   1095   1096     1   0.10969 276646.080000
   1095   1097     1   0.10969 276646.080000
   1098   1099     1   0.10969 276646.080000
   1098   1100     1   0.10969 276646.080000
   1103   1104     1   0.10969 276646.080000
   1103   1105     1   0.10969 276646.080000
   1106   1107     1   0.10969 276646.080000
   1106   1108     1   0.10969 276646.080000
   1109   1110     1   0.10969 276646.080000
   1109   1111     1   0.10969 276646.080000
   1112   1113     1   0.10969 276646.080000
   1112   1114     1   0.10969 276646.080000
   1115   1116     1   0.10969 276646.080000
   1115   1117     1   0.10969 276646.080000
   1118   1119     1   0.10969 276646.080000
   1118   1120     1   0.10969 276646.080000
   1121   1122     1   0.10969 276646.080000
   1121   1123     1   0.10969 276646.080000
   1124   1125     1   0.10969 276646.080000
   1124   1126     1   0.10969 276646.080000
   1127   1128     1   0.10969 276646.080000
   1127   1129     1   0.10969 276646.080000
   1132   1133     1   0.10969 276646.080000
   1132   1134     1   0.10969 276646.080000
   1135   1136     1   0.10969 276646.080000
   1135   1137     1   0.10969 276646.080000
   1138   1139     1   0.10969 276646.080000
   1138   1140     1   0.10969 276646.080000
   1141   1142     1   0.10969 276646.080000
   1141   1143     1   0.10969 276646.080000
   1144   1145     1   0.10969 276646.080000
   1144   1146     1   0.10969 276646.080000
   1147   1148     1   0.10969 276646.080000
   1147   1149     1   0.10969 276646.080000
   1150   1151     1   0.10969 276646.080000
   1150   1152     1   0.10969 276646.080000
   1153   1154     1   0.10969 276646.080000
   1153   1155     1   0.10969 276646.080000
   1156   1157     1   0.10969 276646.080000
   1156   1158     1   0.10969 276646.080000
   1161   1162     1   0.10969 276646.080000
   1161   1163     1   0.10969 276646.080000
   1164   1165     1   0.10969 276646.080000
   1164   1166     1   0.10969 276646.080000
   1167   1168     1   0.10969 276646.080000
   1167   1169     1   0.10969 276646.080000
   1170   1171     1   0.10969 276646.080000
   1170   1172     1   0.10969 276646.080000
   1173   1174     1   0.10969 276646.080000
   1173   1175     1   0.10969 276646.080000
   1176   1177     1   0.10969 276646.080000
   1176   1178     1   0.10969 276646.080000
   1179   1180     1   0.10969 276646.080000
   1179   1181     1   0.10969 276646.080000
   1182   1183     1   0.10969 276646.080000
   1182   1184     1   0.10969 276646.080000
   1185   1186     1   0.10969 276646.080000
   1185   1187     1   0.10969 276646.080000
   1190   1191     1   0.10969 276646.080000
   1190   1192     1   0.10969 276646.080000
   1193   1194     1   0.10969 276646.080000
   1193   1195     1   0.10969 276646.080000
   1196   1197     1   0.10969 276646.080000
   1196   1198     1   0.10969 276646.080000
   1199   1200     1   0.10969 276646.080000
   1199   1201     1   0.10969 276646.080000
   1202   1203     1   0.10969 276646.080000
   1202   1204     1   0.10969 276646.080000
   1205   1206     1   0.10969 276646.080000
   1205   1207     1   0.10969 276646.080000
   1208   1209     1   0.10969 276646.080000
   1208   1210     1   0.10969 276646.080000
   1211   1212     1   0.10969 276646.080000
   1211   1213     1   0.10969 276646.080000
   1214   1215     1   0.10969 276646.080000
   1214   1216     1   0.10969 276646.080000
   1219   1220     1   0.10969 276646.080000
   1219   1221     1   0.10969 276646.080000
   1222   1223     1   0.10969 276646.080000
   1222   1224     1   0.10969 276646.080000
   1225   1226     1   0.10969 276646.080000
   1225   1227     1   0.10969 276646.080000
   1228   1229     1   0.10969 276646.080000
   1228   1230     1   0.10969 276646.080000
   1231   1232     1   0.10969 276646.080000
   1231   1233     1   0.10969 276646.080000
   1234   1235     1   0.10969 276646.080000
   1234   1236     1   0.10969 276646.080000
   1237   1238     1   0.10969 276646.080000
   1237   1239     1   0.10969 276646.080000
   1240   1241     1   0.10969 276646.080000
   1240   1242     1   0.10969 276646.080000
   1243   1244     1   0.10969 276646.080000
   1243   1245     1   0.10969 276646.080000
   1248   1249     1   0.10969 276646.080000
   1248   1250     1   0.10969 276646.080000
   1251   1252     1   0.10969 276646.080000
   1251   1253     1   0.10969 276646.080000
   1254   1255     1   0.10969 276646.080000
   1254   1256     1   0.10969 276646.080000
   1257   1258     1   0.10969 276646.080000
   1257   1259     1   0.10969 276646.080000
   1260   1261     1   0.10969 276646.080000
   1260   1262     1   0.10969 276646.080000
   1263   1264     1   0.10969 276646.080000
   1263   1265     1   0.10969 276646.080000
   1266   1267     1   0.10969 276646.080000
   1266   1268     1   0.10969 276646.080000
   1269   1270     1   0.10969 276646.080000
   1269   1271     1   0.10969 276646.080000
   1272   1273     1   0.10969 276646.080000
   1272   1274     1   0.10969 276646.080000
   1277   1278     1   0.10969 276646.080000
   1277   1279     1   0.10969 276646.080000
   1280   1281     1   0.10969 276646.080000
   1280   1282     1   0.10969 276646.080000
   1283   1284     1   0.10969 276646.080000
   1283   1285     1   0.10969 276646.080000
   1286   1287     1   0.10969 276646.080000
   1286   1288     1   0.10969 276646.080000
   1289   1290     1   0.10969 276646.080000
   1289   1291     1   0.10969 276646.080000
   1292   1293     1   0.10969 276646.080000
   1292   1294     1   0.10969 276646.080000
   1295   1296     1   0.10969 276646.080000
   1295   1297     1   0.10969 276646.080000
   1298   1299     1   0.10969 276646.080000
   1298   1300     1   0.10969 276646.080000
   1301   1302     1   0.10969 276646.080000
   1301   1303     1   0.10969 276646.080000
   1306   1307     1   0.10969 276646.080000
   1306   1308     1   0.10969 276646.080000
   1309   1310     1   0.10969 276646.080000
   1309   1311     1   0.10969 276646.080000
   1312   1313     1   0.10969 276646.080000
   1312   1314     1   0.10969 276646.080000
   1315   1316     1   0.10969 276646.080000
   1315   1317     1   0.10969 276646.080000
   1318   1319     1   0.10969 276646.080000
   1318   1320     1   0.10969 276646.080000
   1321   1322     1   0.10969 276646.080000
   1321   1323     1   0.10969 276646.080000
   1324   1325     1   0.10969 276646.080000
   1324   1326     1   0.10969 276646.080000
   1327   1328     1   0.10969 276646.080000
   1327   1329     1   0.10969 276646.080000
   1330   1331     1   0.10969 276646.080000
   1330   1332     1   0.10969 276646.080000
   1335   1336     1   0.10969 276646.080000
   1335   1337     1   0.10969 276646.080000
   1338   1339     1   0.10969 276646.080000
   1338   1340     1   0.10969 276646.080000
   1341   1342     1   0.10969 276646.080000
   1341   1343     1   0.10969 276646.080000
   1344   1345     1   0.10969 276646.080000
   1344   1346     1   0.10969 276646.080000
   1347   1348     1   0.10969 276646.080000
   1347   1349     1   0.10969 276646.080000
   1350   1351     1   0.10969 276646.080000
   1350   1352     1   0.10969 276646.080000
   1353   1354     1   0.10969 276646.080000
   1353   1355     1   0.10969 276646.080000
   1356   1357     1   0.10969 276646.080000
   1356   1358     1   0.10969 276646.080000
   1359   1360     1   0.10969 276646.080000
   1359   1361     1   0.10969 276646.080000
   1364   1365     1   0.10969 276646.080000
   1364   1366     1   0.10969 276646.080000
   1367   1368     1   0.10969 276646.080000
   1367   1369     1   0.10969 276646.080000
   1370   1371     1   0.10969 276646.080000
   1370   1372     1   0.10969 276646.080000
   1373   1374     1   0.10969 276646.080000
   1373   1375     1   0.10969 276646.080000
   1376   1377     1   0.10969 276646.080000
   1376   1378     1   0.10969 276646.080000
   1379   1380     1   0.10969 276646.080000
   1379   1381     1   0.10969 276646.080000
   1382   1383     1   0.10969 276646.080000
   1382   1384     1   0.10969 276646.080000
   1385   1386     1   0.10969 276646.080000
   1385   1387     1   0.10969 276646.080000
   1388   1389     1   0.10969 276646.080000
   1388   1390     1   0.10969 276646.080000
   1393   1394     1   0.10969 276646.080000
   1393   1395     1   0.10969 276646.080000
   1396   1397     1   0.10969 276646.080000
   1396   1398     1   0.10969 276646.080000
   1399   1400     1   0.10969 276646.080000
   1399   1401     1   0.10969 276646.080000
   1402   1403     1   0.10969 276646.080000
   1402   1404     1   0.10969 276646.080000
   1405   1406     1   0.10969 276646.080000
   1405   1407     1   0.10969 276646.080000
   1408   1409     1   0.10969 276646.080000
   1408   1410     1   0.10969 276646.080000
   1411   1412     1   0.10969 276646.080000
   1411   1413     1   0.10969 276646.080000
   1414   1415     1   0.10969 276646.080000
   1414   1416     1   0.10969 276646.080000
   1417   1418     1   0.10969 276646.080000
   1417   1419     1   0.10969 276646.080000
   1422   1423     1   0.10969 276646.080000
   1422   1424     1   0.10969 276646.080000
   1425   1426     1   0.10969 276646.080000
   1425   1427     1   0.10969 276646.080000
   1428   1429     1   0.10969 276646.080000
   1428   1430     1   0.10969 276646.080000
   1431   1432     1   0.10969 276646.080000
   1431   1433     1   0.10969 276646.080000
   1434   1435     1   0.10969 276646.080000
   1434   1436     1   0.10969 276646.080000
   1437   1438     1   0.10969 276646.080000
   1437   1439     1   0.10969 276646.080000
   1440   1441     1   0.10969 276646.080000
   1440   1442     1   0.10969 276646.080000
   1443   1444     1   0.10969 276646.080000
   1443   1445     1   0.10969 276646.080000
   1446   1447     1   0.10969 276646.080000
   1446   1448     1   0.10969 276646.080000
   1451   1452     1   0.10969 276646.080000
   1451   1453     1   0.10969 276646.080000
   1454   1455     1   0.10969 276646.080000
   1454   1456     1   0.10969 276646.080000
   1457   1458     1   0.10969 276646.080000
   1457   1459     1   0.10969 276646.080000
   1460   1461     1   0.10969 276646.080000
   1460   1462     1   0.10969 276646.080000
   1463   1464     1   0.10969 276646.080000
   1463   1465     1   0.10969 276646.080000
   1466   1467     1   0.10969 276646.080000
   1466   1468     1   0.10969 276646.080000
   1469   1470     1   0.10969 276646.080000
   1469   1471     1   0.10969 276646.080000
   1472   1473     1   0.10969 276646.080000
   1472   1474     1   0.10969 276646.080000
   1475   1476     1   0.10969 276646.080000
   1475   1477     1   0.10969 276646.080000
   1480   1481     1   0.10969 276646.080000
   1480   1482     1   0.10969 276646.080000
   1483   1484     1   0.10969 276646.080000
   1483   1485     1   0.10969 276646.080000
   1486   1487     1   0.10969 276646.080000
   1486   1488     1   0.10969 276646.080000
   1489   1490     1   0.10969 276646.080000
   1489   1491     1   0.10969 276646.080000
   1492   1493     1   0.10969 276646.080000
   1492   1494     1   0.10969 276646.080000
   1495   1496     1   0.10969 276646.080000
   1495   1497     1   0.10969 276646.080000
   1498   1499     1   0.10969 276646.080000
   1498   1500     1   0.10969 276646.080000
   1501   1502     1   0.10969 276646.080000
   1501   1503     1   0.10969 276646.080000
   1504   1505     1   0.10969 276646.080000
   1504   1506     1   0.10969 276646.080000
   1509   1510     1   0.10969 276646.080000
   1509   1511     1   0.10969 276646.080000
   1512   1513     1   0.10969 276646.080000
   1512   1514     1   0.10969 276646.080000
   1515   1516     1   0.10969 276646.080000
   1515   1517     1   0.10969 276646.080000
   1518   1519     1   0.10969 276646.080000
   1518   1520     1   0.10969 276646.080000
   1521   1522     1   0.10969 276646.080000
   1521   1523     1   0.10969 276646.080000
   1524   1525     1   0.10969 276646.080000
   1524   1526     1   0.10969 276646.080000
   1527   1528     1   0.10969 276646.080000
   1527   1529     1   0.10969 276646.080000
   1530   1531     1   0.10969 276646.080000
   1530   1532     1   0.10969 276646.080000
   1533   1534     1   0.10969 276646.080000
   1533   1535     1   0.10969 276646.080000
   1538   1539     1   0.10969 276646.080000
   1538   1540     1   0.10969 276646.080000
   1541   1542     1   0.10969 276646.080000
   1541   1543     1   0.10969 276646.080000
   1544   1545     1   0.10969 276646.080000
   1544   1546     1   0.10969 276646.080000
   1547   1548     1   0.10969 276646.080000
   1547   1549     1   0.10969 276646.080000
   1550   1551     1   0.10969 276646.080000
   1550   1552     1   0.10969 276646.080000
   1553   1554     1   0.10969 276646.080000
   1553   1555     1   0.10969 276646.080000
   1556   1557     1   0.10969 276646.080000
   1556   1558     1   0.10969 276646.080000
   1559   1560     1   0.10969 276646.080000
   1559   1561     1   0.10969 276646.080000
   1562   1563     1   0.10969 276646.080000
   1562   1564     1   0.10969 276646.080000
   1567   1568     1   0.10969 276646.080000
   1567   1569     1   0.10969 276646.080000
   1570   1571     1   0.10969 276646.080000
   1570   1572     1   0.10969 276646.080000
   1573   1574     1   0.10969 276646.080000
   1573   1575     1   0.10969 276646.080000
   1576   1577     1   0.10969 276646.080000
   1576   1578     1   0.10969 276646.080000
   1579   1580     1   0.10969 276646.080000
   1579   1581     1   0.10969 276646.080000
   1582   1583     1   0.10969 276646.080000
   1582   1584     1   0.10969 276646.080000
   1585   1586     1   0.10969 276646.080000
   1585   1587     1   0.10969 276646.080000
   1588   1589     1   0.10969 276646.080000
   1588   1590     1   0.10969 276646.080000
   1591   1592     1   0.10969 276646.080000
   1591   1593     1   0.10969 276646.080000
   1596   1597     1   0.10969 276646.080000
   1596   1598     1   0.10969 276646.080000
   1599   1600     1   0.10969 276646.080000
   1599   1601     1   0.10969 276646.080000
   1602   1603     1   0.10969 276646.080000
   1602   1604     1   0.10969 276646.080000
   1605   1606     1   0.10969 276646.080000
   1605   1607     1   0.10969 276646.080000
   1608   1609     1   0.10969 276646.080000
   1608   1610     1   0.10969 276646.080000
   1611   1612     1   0.10969 276646.080000
   1611   1613     1   0.10969 276646.080000
   1614   1615     1   0.10969 276646.080000
   1614   1616     1   0.10969 276646.080000
   1617   1618     1   0.10969 276646.080000
   1617   1619     1   0.10969 276646.080000
   1620   1621     1   0.10969 276646.080000
   1620   1622     1   0.10969 276646.080000
   1625   1626     1   0.10969 276646.080000
   1625   1627     1   0.10969 276646.080000
   1628   1629     1   0.10969 276646.080000
   1628   1630     1   0.10969 276646.080000
   1631   1632     1   0.10969 276646.080000
   1631   1633     1   0.10969 276646.080000
   1634   1635     1   0.10969 276646.080000
   1634   1636     1   0.10969 276646.080000
   1637   1638     1   0.10969 276646.080000
   1637   1639     1   0.10969 276646.080000
   1640   1641     1   0.10969 276646.080000
   1640   1642     1   0.10969 276646.080000
   1643   1644     1   0.10969 276646.080000
   1643   1645     1   0.10969 276646.080000
   1646   1647     1   0.10969 276646.080000
   1646   1648     1   0.10969 276646.080000
   1649   1650     1   0.10969 276646.080000
   1649   1651     1   0.10969 276646.080000
   1654   1655     1   0.10969 276646.080000
   1654   1656     1   0.10969 276646.080000
   1657   1658     1   0.10969 276646.080000
   1657   1659     1   0.10969 276646.080000
   1660   1661     1   0.10969 276646.080000
   1660   1662     1   0.10969 276646.080000
   1663   1664     1   0.10969 276646.080000
   1663   1665     1   0.10969 276646.080000
   1666   1667     1   0.10969 276646.080000
   1666   1668     1   0.10969 276646.080000
   1669   1670     1   0.10969 276646.080000
   1669   1671     1   0.10969 276646.080000
   1672   1673     1   0.10969 276646.080000
   1672   1674     1   0.10969 276646.080000
   1675   1676     1   0.10969 276646.080000
   1675   1677     1   0.10969 276646.080000
   1678   1679     1   0.10969 276646.080000
   1678   1680     1   0.10969 276646.080000
   1683   1684     1   0.10969 276646.080000
   1683   1685     1   0.10969 276646.080000
   1686   1687     1   0.10969 276646.080000
   1686   1688     1   0.10969 276646.080000
   1689   1690     1   0.10969 276646.080000
   1689   1691     1   0.10969 276646.080000
   1692   1693     1   0.10969 276646.080000
   1692   1694     1   0.10969 276646.080000
   1695   1696     1   0.10969 276646.080000
   1695   1697     1   0.10969 276646.080000
   1698   1699     1   0.10969 276646.080000
   1698   1700     1   0.10969 276646.080000
   1701   1702     1   0.10969 276646.080000
   1701   1703     1   0.10969 276646.080000
   1704   1705     1   0.10969 276646.080000
   1704   1706     1   0.10969 276646.080000
   1707   1708     1   0.10969 276646.080000
   1707   1709     1   0.10969 276646.080000
   1712   1713     1   0.10969 276646.080000
   1712   1714     1   0.10969 276646.080000
   1715   1716     1   0.10969 276646.080000
   1715   1717     1   0.10969 276646.080000
   1718   1719     1   0.10969 276646.080000
   1718   1720     1   0.10969 276646.080000
   1721   1722     1   0.10969 276646.080000
   1721   1723     1   0.10969 276646.080000
   1724   1725     1   0.10969 276646.080000
   1724   1726     1   0.10969 276646.080000
   1727   1728     1   0.10969 276646.080000
   1727   1729     1   0.10969 276646.080000
   1730   1731     1   0.10969 276646.080000
   1730   1732     1   0.10969 276646.080000
   1733   1734     1   0.10969 276646.080000
   1733   1735     1   0.10969 276646.080000
   1736   1737     1   0.10969 276646.080000
   1736   1738     1   0.10969 276646.080000
   1741   1742     1   0.10969 276646.080000
   1741   1743     1   0.10969 276646.080000
   1744   1745     1   0.10969 276646.080000
   1744   1746     1   0.10969 276646.080000
   1747   1748     1   0.10969 276646.080000
   1747   1749     1   0.10969 276646.080000
   1750   1751     1   0.10969 276646.080000
   1750   1752     1   0.10969 276646.080000
   1753   1754     1   0.10969 276646.080000
   1753   1755     1   0.10969 276646.080000
   1756   1757     1   0.10969 276646.080000
   1756   1758     1   0.10969 276646.080000
   1759   1760     1   0.10969 276646.080000
   1759   1761     1   0.10969 276646.080000
   1762   1763     1   0.10969 276646.080000
   1762   1764     1   0.10969 276646.080000
   1765   1766     1   0.10969 276646.080000
   1765   1767     1   0.10969 276646.080000
   1770   1771     1   0.10969 276646.080000
   1770   1772     1   0.10969 276646.080000
   1773   1774     1   0.10969 276646.080000
   1773   1775     1   0.10969 276646.080000
   1776   1777     1   0.10969 276646.080000
   1776   1778     1   0.10969 276646.080000
   1779   1780     1   0.10969 276646.080000
   1779   1781     1   0.10969 276646.080000
   1782   1783     1   0.10969 276646.080000
   1782   1784     1   0.10969 276646.080000
   1785   1786     1   0.10969 276646.080000
   1785   1787     1   0.10969 276646.080000
   1788   1789     1   0.10969 276646.080000
   1788   1790     1   0.10969 276646.080000
   1791   1792     1   0.10969 276646.080000
   1791   1793     1   0.10969 276646.080000
   1794   1795     1   0.10969 276646.080000
   1794   1796     1   0.10969 276646.080000
   1798   1799     1   0.10969 276646.080000
   1798   1800     1   0.10969 276646.080000
   1801   1802     1   0.10969 276646.080000
   1801   1803     1   0.10969 276646.080000
   1804   1805     1   0.10969 276646.080000
   1804   1806     1   0.10969 276646.080000
   1808   1809     1   0.10969 276646.080000
   1808   1810     1   0.10969 276646.080000
   1811   1812     1   0.10969 276646.080000
   1811   1813     1   0.10969 276646.080000
   1816   1817     1   0.09730 310787.520000
   1818   1819     1   0.10969 276646.080000
   1818   1820     1   0.10969 276646.080000
   1821   1822     1   0.10969 276646.080000
   1821   1823     1   0.10969 276646.080000
   1826   1827     1   0.09730 310787.520000
   1829   1830     1   0.10969 276646.080000
   1829   1831     1   0.10969 276646.080000
   1832   1833     1   0.10969 276646.080000
   1832   1834     1   0.10969 276646.080000
   1835   1836     1   0.10969 276646.080000
   1835   1837     1   0.10969 276646.080000
   1839   1840     1   0.10969 276646.080000
   1839   1841     1   0.10969 276646.080000
   1842   1843     1   0.10969 276646.080000
   1842   1844     1   0.10969 276646.080000
   1847   1848     1   0.09730 310787.520000
   1849   1850     1   0.10969 276646.080000
   1849   1851     1   0.10969 276646.080000
   1852   1853     1   0.10969 276646.080000
   1852   1854     1   0.10969 276646.080000
   1857   1858     1   0.09730 310787.520000
   1860   1861     1   0.10969 276646.080000
   1860   1862     1   0.10969 276646.080000
   1863   1864     1   0.10969 276646.080000
   1863   1865     1   0.10969 276646.080000
   1866   1867     1   0.10969 276646.080000
   1866   1868     1   0.10969 276646.080000
   1870   1871     1   0.10969 276646.080000
   1870   1872     1   0.10969 276646.080000
   1873   1874     1   0.10969 276646.080000
   1873   1875     1   0.10969 276646.080000
   1878   1879     1   0.09730 310787.520000
   1880   1881     1   0.10969 276646.080000
   1880   1882     1   0.10969 276646.080000
   1883   1884     1   0.10969 276646.080000
   1883   1885     1   0.10969 276646.080000
   1888   1889     1   0.09730 310787.520000
   1891   1892     1   0.10969 276646.080000
   1891   1893     1   0.10969 276646.080000
   1894   1895     1   0.10969 276646.080000
   1894   1896     1   0.10969 276646.080000
   1897   1898     1   0.10969 276646.080000
   1897   1899     1   0.10969 276646.080000
   1901   1902     1   0.10969 276646.080000
   1901   1903     1   0.10969 276646.080000
   1904   1905     1   0.10969 276646.080000
   1904   1906     1   0.10969 276646.080000
   1909   1910     1   0.09730 310787.520000
   1911   1912     1   0.10969 276646.080000
   1911   1913     1   0.10969 276646.080000
   1914   1915     1   0.10969 276646.080000
   1914   1916     1   0.10969 276646.080000
   1919   1920     1   0.09730 310787.520000
   1922   1923     1   0.10969 276646.080000
   1922   1924     1   0.10969 276646.080000
   1925   1926     1   0.10969 276646.080000
   1925   1927     1   0.10969 276646.080000
   1928   1929     1   0.10969 276646.080000
   1928   1930     1   0.10969 276646.080000
   1932   1933     1   0.10969 276646.080000
   1932   1934     1   0.10969 276646.080000
   1935   1936     1   0.10969 276646.080000
   1935   1937     1   0.10969 276646.080000
   1940   1941     1   0.09730 310787.520000
   1942   1943     1   0.10969 276646.080000
   1942   1944     1   0.10969 276646.080000
   1945   1946     1   0.10969 276646.080000
   1945   1947     1   0.10969 276646.080000
   1950   1951     1   0.09730 310787.520000
   1953   1954     1   0.10969 276646.080000
   1953   1955     1   0.10969 276646.080000
   1956   1957     1   0.10969 276646.080000
   1956   1958     1   0.10969 276646.080000
   1959   1960     1   0.10969 276646.080000
   1959   1961     1   0.10969 276646.080000
   1963   1964     1   0.10969 276646.080000
   1963   1965     1   0.10969 276646.080000
   1966   1967     1   0.10969 276646.080000
   1966   1968     1   0.10969 276646.080000
   1971   1972     1   0.09730 310787.520000
   1973   1974     1   0.10969 276646.080000
   1973   1975     1   0.10969 276646.080000
   1976   1977     1   0.10969 276646.080000
   1976   1978     1   0.10969 276646.080000
   1981   1982     1   0.09730 310787.520000
   1984   1985     1   0.10969 276646.080000
   1984   1986     1   0.10969 276646.080000
   1987   1988     1   0.10969 276646.080000
   1987   1989     1   0.10969 276646.080000
   1990   1991     1   0.10969 276646.080000
   1990   1992     1   0.10969 276646.080000
   1994   1995     1   0.10969 276646.080000
   1994   1996     1   0.10969 276646.080000
   1997   1998     1   0.10969 276646.080000
   1997   1999     1   0.10969 276646.080000
   2002   2003     1   0.09730 310787.520000
   2004   2005     1   0.10969 276646.080000
   2004   2006     1   0.10969 276646.080000
   2007   2008     1   0.10969 276646.080000
   2007   2009     1   0.10969 276646.080000
   2012   2013     1   0.09730 310787.520000
   2015   2016     1   0.10969 276646.080000
   2015   2017     1   0.10969 276646.080000
   2018   2019     1   0.10969 276646.080000
   2018   2020     1   0.10969 276646.080000
   2021   2022     1   0.10969 276646.080000
   2021   2023     1   0.10969 276646.080000
   2025   2026     1   0.10969 276646.080000
   2025   2027     1   0.10969 276646.080000
   2028   2029     1   0.10969 276646.080000
   2028   2030     1   0.10969 276646.080000
   2033   2034     1   0.09730 310787.520000
   2035   2036     1   0.10969 276646.080000
   2035   2037     1   0.10969 276646.080000
   2038   2039     1   0.10969 276646.080000
   2038   2040     1   0.10969 276646.080000
   2043   2044     1   0.09730 310787.520000
   2046   2047     1   0.10969 276646.080000
   2046   2048     1   0.10969 276646.080000
   2049   2050     1   0.10969 276646.080000
   2049   2051     1   0.10969 276646.080000
   2052   2053     1   0.10969 276646.080000
   2052   2054     1   0.10969 276646.080000
   2056   2057     1   0.10969 276646.080000
   2056   2058     1   0.10969 276646.080000
   2059   2060     1   0.10969 276646.080000
   2059   2061     1   0.10969 276646.080000
   2064   2065     1   0.09730 310787.520000
   2066   2067     1   0.10969 276646.080000
   2066   2068     1   0.10969 276646.080000
   2069   2070     1   0.10969 276646.080000
   2069   2071     1   0.10969 276646.080000
   2074   2075     1   0.09730 310787.520000
   2077   2078     1   0.10969 276646.080000
   2077   2079     1   0.10969 276646.080000
   2080   2081     1   0.10969 276646.080000
   2080   2082     1   0.10969 276646.080000
   2083   2084     1   0.10969 276646.080000
   2083   2085     1   0.10969 276646.080000
   2087   2088     1   0.10969 276646.080000
   2087   2089     1   0.10969 276646.080000
   2090   2091     1   0.10969 276646.080000
   2090   2092     1   0.10969 276646.080000
   2095   2096     1   0.09730 310787.520000
   2097   2098     1   0.10969 276646.080000
   2097   2099     1   0.10969 276646.080000
   2100   2101     1   0.10969 276646.080000
   2100   2102     1   0.10969 276646.080000
   2105   2106     1   0.09730 310787.520000
   2108   2109     1   0.10969 276646.080000
   2108   2110     1   0.10969 276646.080000
   2111   2112     1   0.10969 276646.080000
   2111   2113     1   0.10969 276646.080000
   2114   2115     1   0.10969 276646.080000
   2114   2116     1   0.10969 276646.080000
   2118   2119     1   0.10969 276646.080000
   2118   2120     1   0.10969 276646.080000
   2121   2122     1   0.10969 276646.080000
   2121   2123     1   0.10969 276646.080000
   2126   2127     1   0.09730 310787.520000
   2128   2129     1   0.10969 276646.080000
   2128   2130     1   0.10969 276646.080000
   2131   2132     1   0.10969 276646.080000
   2131   2133     1   0.10969 276646.080000
   2136   2137     1   0.09730 310787.520000
   2139   2140     1   0.10969 276646.080000
   2139   2141     1   0.10969 276646.080000
   2142   2143     1   0.10969 276646.080000
   2142   2144     1   0.10969 276646.080000
   2145   2146     1   0.10969 276646.080000
   2145   2147     1   0.10969 276646.080000
   2149   2150     1   0.10969 276646.080000
   2149   2151     1   0.10969 276646.080000
   2152   2153     1   0.10969 276646.080000
   2152   2154     1   0.10969 276646.080000
   2157   2158     1   0.09730 310787.520000
   2159   2160     1   0.10969 276646.080000
   2159   2161     1   0.10969 276646.080000
   2162   2163     1   0.10969 276646.080000
   2162   2164     1   0.10969 276646.080000
   2167   2168     1   0.09730 310787.520000
   2170   2171     1   0.10969 276646.080000
   2170   2172     1   0.10969 276646.080000
   2173   2174     1   0.10969 276646.080000
   2173   2175     1   0.10969 276646.080000
   2176   2177     1   0.10969 276646.080000
   2176   2178     1   0.10969 276646.080000
   2180   2181     1   0.10969 276646.080000
   2180   2182     1   0.10969 276646.080000
   2183   2184     1   0.10969 276646.080000
   2183   2185     1   0.10969 276646.080000
   2188   2189     1   0.09730 310787.520000
   2190   2191     1   0.10969 276646.080000
   2190   2192     1   0.10969 276646.080000
   2193   2194     1   0.10969 276646.080000
   2193   2195     1   0.10969 276646.080000
   2198   2199     1   0.09730 310787.520000
   2201   2202     1   0.10969 276646.080000
   2201   2203     1   0.10969 276646.080000
   2204   2205     1   0.10969 276646.080000
   2204   2206     1   0.10969 276646.080000
   2207   2208     1   0.10969 276646.080000
   2207   2209     1   0.10969 276646.080000
   2211   2212     1   0.10969 276646.080000
   2211   2213     1   0.10969 276646.080000
   2214   2215     1   0.10969 276646.080000
   2214   2216     1   0.10969 276646.080000
   2219   2220     1   0.09730 310787.520000
   2221   2222     1   0.10969 276646.080000
   2221   2223     1   0.10969 276646.080000
   2224   2225     1   0.10969 276646.080000
   2224   2226     1   0.10969 276646.080000
   2229   2230     1   0.09730 310787.520000
   2232   2233     1   0.10969 276646.080000
   2232   2234     1   0.10969 276646.080000
   2235   2236     1   0.10969 276646.080000
   2235   2237     1   0.10969 276646.080000
   2238   2239     1   0.10969 276646.080000
   2238   2240     1   0.10969 276646.080000
   2242   2243     1   0.10969 276646.080000
   2242   2244     1   0.10969 276646.080000
   2245   2246     1   0.10969 276646.080000
   2245   2247     1   0.10969 276646.080000
   2250   2251     1   0.09730 310787.520000
   2252   2253     1   0.10969 276646.080000
   2252   2254     1   0.10969 276646.080000
   2255   2256     1   0.10969 276646.080000
   2255   2257     1   0.10969 276646.080000
   2260   2261     1   0.09730 310787.520000
   2263   2264     1   0.10969 276646.080000
   2263   2265     1   0.10969 276646.080000
   2266   2267     1   0.10969 276646.080000
   2266   2268     1   0.10969 276646.080000
   2269   2270     1   0.10969 276646.080000
   2269   2271     1   0.10969 276646.080000
   2273   2274     1   0.10969 276646.080000
   2273   2275     1   0.10969 276646.080000
   2276   2277     1   0.10969 276646.080000
   2276   2278     1   0.10969 276646.080000
   2281   2282     1   0.09730 310787.520000
   2283   2284     1   0.10969 276646.080000
   2283   2285     1   0.10969 276646.080000
   2286   2287     1   0.10969 276646.080000
   2286   2288     1   0.10969 276646.080000
   2291   2292     1   0.09730 310787.520000
   2294   2295     1   0.10969 276646.080000
   2294   2296     1   0.10969 276646.080000
   2297   2298     1   0.10969 276646.080000
   2297   2299     1   0.10969 276646.080000
   2300   2301     1   0.10969 276646.080000
   2300   2302     1   0.10969 276646.080000
   2304   2305     1   0.10969 276646.080000
   2304   2306     1   0.10969 276646.080000
   2307   2308     1   0.10969 276646.080000
   2307   2309     1   0.10969 276646.080000
   2312   2313     1   0.09730 310787.520000
   2314   2315     1   0.10969 276646.080000
   2314   2316     1   0.10969 276646.080000
   2317   2318     1   0.10969 276646.080000
   2317   2319     1   0.10969 276646.080000
   2322   2323     1   0.09730 310787.520000
   2325   2326     1   0.10969 276646.080000
   2325   2327     1   0.10969 276646.080000
   2328   2329     1   0.10969 276646.080000
   2328   2330     1   0.10969 276646.080000
   2331   2332     1   0.10969 276646.080000
   2331   2333     1   0.10969 276646.080000
   2335   2336     1   0.10969 276646.080000
   2335   2337     1   0.10969 276646.080000
   2338   2339     1   0.10969 276646.080000
   2338   2340     1   0.10969 276646.080000
   2343   2344     1   0.09730 310787.520000
   2345   2346     1   0.10969 276646.080000
   2345   2347     1   0.10969 276646.080000
   2348   2349     1   0.10969 276646.080000
   2348   2350     1   0.10969 276646.080000
   2353   2354     1   0.09730 310787.520000
   2356   2357     1   0.10969 276646.080000
   2356   2358     1   0.10969 276646.080000
   2359   2360     1   0.10969 276646.080000
   2359   2361     1   0.10969 276646.080000
   2362   2363     1   0.10969 276646.080000
   2362   2364     1   0.10969 276646.080000
   2366   2367     1   0.10969 276646.080000
   2366   2368     1   0.10969 276646.080000
   2369   2370     1   0.10969 276646.080000
   2369   2371     1   0.10969 276646.080000
   2374   2375     1   0.09730 310787.520000
   2376   2377     1   0.10969 276646.080000
   2376   2378     1   0.10969 276646.080000
   2379   2380     1   0.10969 276646.080000
   2379   2381     1   0.10969 276646.080000
   2384   2385     1   0.09730 310787.520000
   2387   2388     1   0.10969 276646.080000
   2387   2389     1   0.10969 276646.080000
   2390   2391     1   0.10969 276646.080000
   2390   2392     1   0.10969 276646.080000
   2393   2394     1   0.10969 276646.080000
   2393   2395     1   0.10969 276646.080000
   2397   2398     1   0.10969 276646.080000
   2397   2399     1   0.10969 276646.080000
   2400   2401     1   0.10969 276646.080000
   2400   2402     1   0.10969 276646.080000
   2405   2406     1   0.09730 310787.520000
   2407   2408     1   0.10969 276646.080000
   2407   2409     1   0.10969 276646.080000
   2410   2411     1   0.10969 276646.080000
   2410   2412     1   0.10969 276646.080000
   2415   2416     1   0.09730 310787.520000
   2418   2419     1   0.10969 276646.080000
   2418   2420     1   0.10969 276646.080000
   2421   2422     1   0.10969 276646.080000
   2421   2423     1   0.10969 276646.080000
   2424   2425     1   0.10969 276646.080000
   2424   2426     1   0.10969 276646.080000
   2428   2429     1   0.10969 276646.080000
   2428   2430     1   0.10969 276646.080000
   2431   2432     1   0.10969 276646.080000
   2431   2433     1   0.10969 276646.080000
   2436   2437     1   0.09730 310787.520000
   2438   2439     1   0.10969 276646.080000
   2438   2440     1   0.10969 276646.080000
   2441   2442     1   0.10969 276646.080000
   2441   2443     1   0.10969 276646.080000
   2446   2447     1   0.09730 310787.520000
   2449   2450     1   0.10969 276646.080000
   2449   2451     1   0.10969 276646.080000
   2452   2453     1   0.10969 276646.080000
   2452   2454     1   0.10969 276646.080000
   2455   2456     1   0.10969 276646.080000
   2455   2457     1   0.10969 276646.080000
   2459   2460     1   0.10969 276646.080000
   2459   2461     1   0.10969 276646.080000
   2462   2463     1   0.10969 276646.080000
   2462   2464     1   0.10969 276646.080000
   2467   2468     1   0.09730 310787.520000
   2469   2470     1   0.10969 276646.080000
   2469   2471     1   0.10969 276646.080000
   2472   2473     1   0.10969 276646.080000
   2472   2474     1   0.10969 276646.080000
   2477   2478     1   0.09730 310787.520000
   2480   2481     1   0.10969 276646.080000
   2480   2482     1   0.10969 276646.080000
   2483   2484     1   0.10969 276646.080000
   2483   2485     1   0.10969 276646.080000
   2486   2487     1   0.10969 276646.080000
   2486   2488     1   0.10969 276646.080000
   2490   2491     1   0.10969 276646.080000
   2490   2492     1   0.10969 276646.080000
   2493   2494     1   0.10969 276646.080000
   2493   2495     1   0.10969 276646.080000
   2498   2499     1   0.09730 310787.520000
   2500   2501     1   0.10969 276646.080000
   2500   2502     1   0.10969 276646.080000
   2503   2504     1   0.10969 276646.080000
   2503   2505     1   0.10969 276646.080000
   2508   2509     1   0.09730 310787.520000
   2511   2512     1   0.10969 276646.080000
   2511   2513     1   0.10969 276646.080000
   2514   2515     1   0.10969 276646.080000
   2514   2516     1   0.10969 276646.080000
   2517   2518     1   0.10969 276646.080000
   2517   2519     1   0.10969 276646.080000
   2521   2522     1   0.10969 276646.080000
   2521   2523     1   0.10969 276646.080000
   2524   2525     1   0.10969 276646.080000
   2524   2526     1   0.10969 276646.080000
   2529   2530     1   0.09730 310787.520000
   2531   2532     1   0.10969 276646.080000
   2531   2533     1   0.10969 276646.080000
   2534   2535     1   0.10969 276646.080000
   2534   2536     1   0.10969 276646.080000
   2539   2540     1   0.09730 310787.520000
   2542   2543     1   0.10969 276646.080000
   2542   2544     1   0.10969 276646.080000
   2545   2546     1   0.10969 276646.080000
   2545   2547     1   0.10969 276646.080000
   2548   2549     1   0.10969 276646.080000
   2548   2550     1   0.10969 276646.080000
   2552   2553     1   0.10969 276646.080000
   2552   2554     1   0.10969 276646.080000
   2555   2556     1   0.10969 276646.080000
   2555   2557     1   0.10969 276646.080000
   2560   2561     1   0.09730 310787.520000
   2562   2563     1   0.10969 276646.080000
   2562   2564     1   0.10969 276646.080000
   2565   2566     1   0.10969 276646.080000
   2565   2567     1   0.10969 276646.080000
   2570   2571     1   0.09730 310787.520000
   2573   2574     1   0.10969 276646.080000
   2573   2575     1   0.10969 276646.080000
   2576   2577     1   0.10969 276646.080000
   2576   2578     1   0.10969 276646.080000
   2579   2580     1   0.10969 276646.080000
   2579   2581     1   0.10969 276646.080000
   2583   2584     1   0.10969 276646.080000
   2583   2585     1   0.10969 276646.080000
   2586   2587     1   0.10969 276646.080000
   2586   2588     1   0.10969 276646.080000
   2591   2592     1   0.09730 310787.520000
   2593   2594     1   0.10969 276646.080000
   2593   2595     1   0.10969 276646.080000
   2596   2597     1   0.10969 276646.080000
   2596   2598     1   0.10969 276646.080000
   2601   2602     1   0.09730 310787.520000
   2604   2605     1   0.10969 276646.080000
   2604   2606     1   0.10969 276646.080000
   2607   2608     1   0.10969 276646.080000
   2607   2609     1   0.10969 276646.080000
   2610   2611     1   0.10969 276646.080000
   2610   2612     1   0.10969 276646.080000
   2614   2615     1   0.10969 276646.080000
   2614   2616     1   0.10969 276646.080000
   2617   2618     1   0.10969 276646.080000
   2617   2619     1   0.10969 276646.080000
   2622   2623     1   0.09730 310787.520000
   2624   2625     1   0.10969 276646.080000
   2624   2626     1   0.10969 276646.080000
   2627   2628     1   0.10969 276646.080000
   2627   2629     1   0.10969 276646.080000
   2632   2633     1   0.09730 310787.520000
   2635   2636     1   0.10969 276646.080000
   2635   2637     1   0.10969 276646.080000
   2638   2639     1   0.10969 276646.080000
   2638   2640     1   0.10969 276646.080000
   2641   2642     1   0.10969 276646.080000
   2641   2643     1   0.10969 276646.080000
   2645   2646     1   0.10969 276646.080000
   2645   2647     1   0.10969 276646.080000
   2648   2649     1   0.10969 276646.080000
   2648   2650     1   0.10969 276646.080000
   2653   2654     1   0.09730 310787.520000
   2655   2656     1   0.10969 276646.080000
   2655   2657     1   0.10969 276646.080000
   2658   2659     1   0.10969 276646.080000
   2658   2660     1   0.10969 276646.080000
   2663   2664     1   0.09730 310787.520000
   2666   2667     1   0.10969 276646.080000
   2666   2668     1   0.10969 276646.080000
   2669   2670     1   0.10969 276646.080000
   2669   2671     1   0.10969 276646.080000
   2672   2673     1   0.10969 276646.080000
   2672   2674     1   0.10969 276646.080000
   2676   2677     1   0.10969 276646.080000
   2676   2678     1   0.10969 276646.080000
   2679   2680     1   0.10969 276646.080000
   2679   2681     1   0.10969 276646.080000
   2684   2685     1   0.09730 310787.520000
   2686   2687     1   0.10969 276646.080000
   2686   2688     1   0.10969 276646.080000
   2689   2690     1   0.10969 276646.080000
   2689   2691     1   0.10969 276646.080000
   2694   2695     1   0.09730 310787.520000
   2697   2698     1   0.10969 276646.080000
   2697   2699     1   0.10969 276646.080000
   2700   2701     1   0.10969 276646.080000
   2700   2702     1   0.10969 276646.080000
   2703   2704     1   0.10969 276646.080000
   2703   2705     1   0.10969 276646.080000
   2707   2708     1   0.10969 276646.080000
   2707   2709     1   0.10969 276646.080000
   2710   2711     1   0.10969 276646.080000
   2710   2712     1   0.10969 276646.080000
   2715   2716     1   0.09730 310787.520000
   2717   2718     1   0.10969 276646.080000
   2717   2719     1   0.10969 276646.080000
   2720   2721     1   0.10969 276646.080000
   2720   2722     1   0.10969 276646.080000
   2725   2726     1   0.09730 310787.520000
   2728   2729     1   0.10969 276646.080000
   2728   2730     1   0.10969 276646.080000
   2731   2732     1   0.10969 276646.080000
   2731   2733     1   0.10969 276646.080000
   2734   2735     1   0.10969 276646.080000
   2734   2736     1   0.10969 276646.080000
   2738   2739     1   0.10969 276646.080000
   2738   2740     1   0.10969 276646.080000
   2741   2742     1   0.10969 276646.080000
   2741   2743     1   0.10969 276646.080000
   2746   2747     1   0.09730 310787.520000
   2748   2749     1   0.10969 276646.080000
   2748   2750     1   0.10969 276646.080000
   2751   2752     1   0.10969 276646.080000
   2751   2753     1   0.10969 276646.080000
   2756   2757     1   0.09730 310787.520000
   2759   2760     1   0.10969 276646.080000
   2759   2761     1   0.10969 276646.080000
   2762   2763     1   0.10969 276646.080000
   2762   2764     1   0.10969 276646.080000
   2765   2766     1   0.10969 276646.080000
   2765   2767     1   0.10969 276646.080000
   2769   2770     1   0.10969 276646.080000
   2769   2771     1   0.10969 276646.080000
   2772   2773     1   0.10969 276646.080000
   2772   2774     1   0.10969 276646.080000
   2777   2778     1   0.09730 310787.520000
   2779   2780     1   0.10969 276646.080000
   2779   2781     1   0.10969 276646.080000
   2782   2783     1   0.10969 276646.080000
   2782   2784     1   0.10969 276646.080000
   2787   2788     1   0.09730 310787.520000
   2790   2791     1   0.10969 276646.080000
   2790   2792     1   0.10969 276646.080000
   2793   2794     1   0.10969 276646.080000
   2793   2795     1   0.10969 276646.080000
   2796   2797     1   0.10969 276646.080000
   2796   2798     1   0.10969 276646.080000
   2800   2801     1   0.10969 276646.080000
   2800   2802     1   0.10969 276646.080000
   2803   2804     1   0.10969 276646.080000
   2803   2805     1   0.10969 276646.080000
   2808   2809     1   0.09730 310787.520000
   2810   2811     1   0.10969 276646.080000
   2810   2812     1   0.10969 276646.080000
   2813   2814     1   0.10969 276646.080000
   2813   2815     1   0.10969 276646.080000
   2818   2819     1   0.09730 310787.520000
   2821   2822     1   0.10969 276646.080000
   2821   2823     1   0.10969 276646.080000
   2824   2825     1   0.10969 276646.080000
   2824   2826     1   0.10969 276646.080000
   2827   2828     1   0.10969 276646.080000
   2827   2829     1   0.10969 276646.080000
   2831   2832     1   0.10969 276646.080000
   2831   2833     1   0.10969 276646.080000
   2834   2835     1   0.10969 276646.080000
   2834   2836     1   0.10969 276646.080000
   2839   2840     1   0.09730 310787.520000
   2841   2842     1   0.10969 276646.080000
   2841   2843     1   0.10969 276646.080000
   2844   2845     1   0.10969 276646.080000
   2844   2846     1   0.10969 276646.080000
   2849   2850     1   0.09730 310787.520000
   2852   2853     1   0.10969 276646.080000
   2852   2854     1   0.10969 276646.080000
   2855   2856     1   0.10969 276646.080000
   2855   2857     1   0.10969 276646.080000
   2858   2859     1   0.10969 276646.080000
   2858   2860     1   0.10969 276646.080000
   2862   2863     1   0.10969 276646.080000
   2862   2864     1   0.10969 276646.080000
   2865   2866     1   0.10969 276646.080000
   2865   2867     1   0.10969 276646.080000
   2870   2871     1   0.09730 310787.520000
   2872   2873     1   0.10969 276646.080000
   2872   2874     1   0.10969 276646.080000
   2875   2876     1   0.10969 276646.080000
   2875   2877     1   0.10969 276646.080000
   2880   2881     1   0.09730 310787.520000
   2883   2884     1   0.10969 276646.080000
   2883   2885     1   0.10969 276646.080000
   2886   2887     1   0.10969 276646.080000
   2886   2888     1   0.10969 276646.080000
   2889   2890     1   0.10969 276646.080000
   2889   2891     1   0.10969 276646.080000
   2893   2894     1   0.10969 276646.080000
   2893   2895     1   0.10969 276646.080000
   2896   2897     1   0.10969 276646.080000
   2896   2898     1   0.10969 276646.080000
   2901   2902     1   0.09730 310787.520000
   2903   2904     1   0.10969 276646.080000
   2903   2905     1   0.10969 276646.080000
   2906   2907     1   0.10969 276646.080000
   2906   2908     1   0.10969 276646.080000
   2911   2912     1   0.09730 310787.520000
   2914   2915     1   0.10969 276646.080000
   2914   2916     1   0.10969 276646.080000
   2917   2918     1   0.10969 276646.080000
   2917   2919     1   0.10969 276646.080000
   2920   2921     1   0.10969 276646.080000
   2920   2922     1   0.10969 276646.080000
   2924   2925     1   0.10969 276646.080000
   2924   2926     1   0.10969 276646.080000
   2927   2928     1   0.10969 276646.080000
   2927   2929     1   0.10969 276646.080000
   2932   2933     1   0.09730 310787.520000
   2934   2935     1   0.10969 276646.080000
   2934   2936     1   0.10969 276646.080000
   2937   2938     1   0.10969 276646.080000
   2937   2939     1   0.10969 276646.080000
   2942   2943     1   0.09730 310787.520000
   2945   2946     1   0.10969 276646.080000
   2945   2947     1   0.10969 276646.080000
   2948   2949     1   0.10969 276646.080000
   2948   2950     1   0.10969 276646.080000
   2951   2952     1   0.10969 276646.080000
   2951   2953     1   0.10969 276646.080000
   2955   2956     1   0.10969 276646.080000
   2955   2957     1   0.10969 276646.080000
   2958   2959     1   0.10969 276646.080000
   2958   2960     1   0.10969 276646.080000
   2963   2964     1   0.09730 310787.520000
   2965   2966     1   0.10969 276646.080000
   2965   2967     1   0.10969 276646.080000
   2968   2969     1   0.10969 276646.080000
   2968   2970     1   0.10969 276646.080000
   2973   2974     1   0.09730 310787.520000
   2976   2977     1   0.10969 276646.080000
   2976   2978     1   0.10969 276646.080000
   2979   2980     1   0.10969 276646.080000
   2979   2981     1   0.10969 276646.080000
   2982   2983     1   0.10969 276646.080000
   2982   2984     1   0.10969 276646.080000
   2986   2987     1   0.10969 276646.080000
   2986   2988     1   0.10969 276646.080000
   2989   2990     1   0.10969 276646.080000
   2989   2991     1   0.10969 276646.080000
   2994   2995     1   0.09730 310787.520000
   2996   2997     1   0.10969 276646.080000
   2996   2998     1   0.10969 276646.080000
   2999   3000     1   0.10969 276646.080000
   2999   3001     1   0.10969 276646.080000
   3004   3005     1   0.09730 310787.520000
   3007   3008     1   0.10969 276646.080000
   3007   3009     1   0.10969 276646.080000
   3010   3011     1   0.10969 276646.080000
   3010   3012     1   0.10969 276646.080000
   3013   3014     1   0.10969 276646.080000
   3013   3015     1   0.10969 276646.080000
   3017   3018     1   0.10969 276646.080000
   3017   3019     1   0.10969 276646.080000
   3020   3021     1   0.10969 276646.080000
   3020   3022     1   0.10969 276646.080000
   3025   3026     1   0.09730 310787.520000
   3027   3028     1   0.10969 276646.080000
   3027   3029     1   0.10969 276646.080000
   3030   3031     1   0.10969 276646.080000
   3030   3032     1   0.10969 276646.080000
   3035   3036     1   0.09730 310787.520000
   3038   3039     1   0.10969 276646.080000
   3038   3040     1   0.10969 276646.080000
   3041   3042     1   0.10969 276646.080000
   3041   3043     1   0.10969 276646.080000
   3044   3045     1   0.10969 276646.080000
   3044   3046     1   0.10969 276646.080000
   3048   3049     1   0.10969 276646.080000
   3048   3050     1   0.10969 276646.080000
   3051   3052     1   0.10969 276646.080000
   3051   3053     1   0.10969 276646.080000
   3056   3057     1   0.09730 310787.520000
   3058   3059     1   0.10969 276646.080000
   3058   3060     1   0.10969 276646.080000
   3061   3062     1   0.10969 276646.080000
   3061   3063     1   0.10969 276646.080000
   3066   3067     1   0.09730 310787.520000
   3069   3070     1   0.10969 276646.080000
   3069   3071     1   0.10969 276646.080000
   3072   3073     1   0.10969 276646.080000
   3072   3074     1   0.10969 276646.080000
   3075   3076     1   0.10969 276646.080000
   3075   3077     1   0.10969 276646.080000
   3079   3080     1   0.10969 276646.080000
   3079   3081     1   0.10969 276646.080000
   3082   3083     1   0.10969 276646.080000
   3082   3084     1   0.10969 276646.080000
   3087   3088     1   0.09730 310787.520000
   3089   3090     1   0.10969 276646.080000
   3089   3091     1   0.10969 276646.080000
   3092   3093     1   0.10969 276646.080000
   3092   3094     1   0.10969 276646.080000
   3097   3098     1   0.09730 310787.520000
   3100   3101     1   0.10969 276646.080000
   3100   3102     1   0.10969 276646.080000
   3103   3104     1   0.10969 276646.080000
   3103   3105     1   0.10969 276646.080000
   3106   3107     1   0.10969 276646.080000
   3106   3108     1   0.10969 276646.080000
   3110   3111     1   0.10969 276646.080000
   3110   3112     1   0.10969 276646.080000
   3113   3114     1   0.10969 276646.080000
   3113   3115     1   0.10969 276646.080000
   3118   3119     1   0.09730 310787.520000
   3120   3121     1   0.10969 276646.080000
   3120   3122     1   0.10969 276646.080000
   3123   3124     1   0.10969 276646.080000
   3123   3125     1   0.10969 276646.080000
   3128   3129     1   0.09730 310787.520000
   3131   3132     1   0.10969 276646.080000
   3131   3133     1   0.10969 276646.080000
   3134   3135     1   0.10969 276646.080000
   3134   3136     1   0.10969 276646.080000
   3137   3138     1   0.10969 276646.080000
   3137   3139     1   0.10969 276646.080000
   3141   3142     1   0.10969 276646.080000
   3141   3143     1   0.10969 276646.080000
   3144   3145     1   0.10969 276646.080000
   3144   3146     1   0.10969 276646.080000
   3149   3150     1   0.09730 310787.520000
   3151   3152     1   0.10969 276646.080000
   3151   3153     1   0.10969 276646.080000
   3154   3155     1   0.10969 276646.080000
   3154   3156     1   0.10969 276646.080000
   3159   3160     1   0.09730 310787.520000
   3162   3163     1   0.10969 276646.080000
   3162   3164     1   0.10969 276646.080000
   3165   3166     1   0.10969 276646.080000
   3165   3167     1   0.10969 276646.080000
   3168   3169     1   0.10969 276646.080000
   3168   3170     1   0.10969 276646.080000
   3172   3173     1   0.10969 276646.080000
   3172   3174     1   0.10969 276646.080000
   3175   3176     1   0.10969 276646.080000
   3175   3177     1   0.10969 276646.080000
   3180   3181     1   0.09730 310787.520000
   3182   3183     1   0.10969 276646.080000
   3182   3184     1   0.10969 276646.080000
   3185   3186     1   0.10969 276646.080000
   3185   3187     1   0.10969 276646.080000
   3190   3191     1   0.09730 310787.520000
   3193   3194     1   0.10969 276646.080000
   3193   3195     1   0.10969 276646.080000
   3196   3197     1   0.10969 276646.080000
   3196   3198     1   0.10969 276646.080000
   3199   3200     1   0.10969 276646.080000
   3199   3201     1   0.10969 276646.080000
   3203   3204     1   0.10969 276646.080000
   3203   3205     1   0.10969 276646.080000
   3206   3207     1   0.10969 276646.080000
   3206   3208     1   0.10969 276646.080000
   3211   3212     1   0.09730 310787.520000
   3213   3214     1   0.10969 276646.080000
   3213   3215     1   0.10969 276646.080000
   3216   3217     1   0.10969 276646.080000
   3216   3218     1   0.10969 276646.080000
   3221   3222     1   0.09730 310787.520000
   3224   3225     1   0.10969 276646.080000
   3224   3226     1   0.10969 276646.080000
   3227   3228     1   0.10969 276646.080000
   3227   3229     1   0.10969 276646.080000
   3230   3231     1   0.10969 276646.080000
   3230   3232     1   0.10969 276646.080000
   3234   3235     1   0.10969 276646.080000
   3234   3236     1   0.10969 276646.080000
   3237   3238     1   0.10969 276646.080000
   3237   3239     1   0.10969 276646.080000
   3242   3243     1   0.09730 310787.520000
   3244   3245     1   0.10969 276646.080000
   3244   3246     1   0.10969 276646.080000
   3247   3248     1   0.10969 276646.080000
   3247   3249     1   0.10969 276646.080000
   3252   3253     1   0.09730 310787.520000
   3255   3256     1   0.10969 276646.080000
   3255   3257     1   0.10969 276646.080000
   3258   3259     1   0.10969 276646.080000
   3258   3260     1   0.10969 276646.080000
   3261   3262     1   0.10969 276646.080000
   3261   3263     1   0.10969 276646.080000
   3265   3266     1   0.10969 276646.080000
   3265   3267     1   0.10969 276646.080000
   3268   3269     1   0.10969 276646.080000
   3268   3270     1   0.10969 276646.080000
   3273   3274     1   0.09730 310787.520000
   3275   3276     1   0.10969 276646.080000
   3275   3277     1   0.10969 276646.080000
   3278   3279     1   0.10969 276646.080000
   3278   3280     1   0.10969 276646.080000
   3283   3284     1   0.09730 310787.520000
   3286   3287     1   0.10969 276646.080000
   3286   3288     1   0.10969 276646.080000
   3289   3290     1   0.10969 276646.080000
   3289   3291     1   0.10969 276646.080000
   3292   3293     1   0.10969 276646.080000
   3292   3294     1   0.10969 276646.080000
   3296   3297     1   0.10969 276646.080000
   3296   3298     1   0.10969 276646.080000
   3299   3300     1   0.10969 276646.080000
   3299   3301     1   0.10969 276646.080000
   3304   3305     1   0.09730 310787.520000
   3306   3307     1   0.10969 276646.080000
   3306   3308     1   0.10969 276646.080000
   3309   3310     1   0.10969 276646.080000
   3309   3311     1   0.10969 276646.080000
   3314   3315     1   0.09730 310787.520000
   3317   3318     1   0.10969 276646.080000
   3317   3319     1   0.10969 276646.080000
   3320   3321     1   0.10969 276646.080000
   3320   3322     1   0.10969 276646.080000
   3323   3324     1   0.10969 276646.080000
   3323   3325     1   0.10969 276646.080000
   3327   3328     1   0.10969 276646.080000
   3327   3329     1   0.10969 276646.080000
   3330   3331     1   0.10969 276646.080000
   3330   3332     1   0.10969 276646.080000
   3335   3336     1   0.09730 310787.520000
   3337   3338     1   0.10969 276646.080000
   3337   3339     1   0.10969 276646.080000
   3340   3341     1   0.10969 276646.080000
   3340   3342     1   0.10969 276646.080000
   3345   3346     1   0.09730 310787.520000
   3348   3349     1   0.10969 276646.080000
   3348   3350     1   0.10969 276646.080000
   3351   3352     1   0.10969 276646.080000
   3351   3353     1   0.10969 276646.080000
   3354   3355     1   0.10969 276646.080000
   3354   3356     1   0.10969 276646.080000
   3358   3359     1   0.10969 276646.080000
   3358   3360     1   0.10969 276646.080000
   3361   3362     1   0.10969 276646.080000
   3361   3363     1   0.10969 276646.080000
   3366   3367     1   0.09730 310787.520000
   3368   3369     1   0.10969 276646.080000
   3368   3370     1   0.10969 276646.080000
   3371   3372     1   0.10969 276646.080000
   3371   3373     1   0.10969 276646.080000
   3376   3377     1   0.09730 310787.520000
   3379   3380     1   0.10969 276646.080000
   3379   3381     1   0.10969 276646.080000
   3382   3383     1   0.10969 276646.080000
   3382   3384     1   0.10969 276646.080000
   3385   3386     1   0.10969 276646.080000
   3385   3387     1   0.10969 276646.080000
   3389   3390     1   0.10969 276646.080000
   3389   3391     1   0.10969 276646.080000
   3392   3393     1   0.10969 276646.080000
   3392   3394     1   0.10969 276646.080000
   3397   3398     1   0.09730 310787.520000
   3399   3400     1   0.10969 276646.080000
   3399   3401     1   0.10969 276646.080000
   3402   3403     1   0.10969 276646.080000
   3402   3404     1   0.10969 276646.080000
   3407   3408     1   0.09730 310787.520000
   3410   3411     1   0.10969 276646.080000
   3410   3412     1   0.10969 276646.080000
   3413   3414     1   0.10969 276646.080000
   3413   3415     1   0.10969 276646.080000
   3416   3417     1   0.10969 276646.080000
   3416   3418     1   0.10969 276646.080000
   3420   3421     1   0.10969 276646.080000
   3420   3422     1   0.10969 276646.080000
   3423   3424     1   0.10969 276646.080000
   3423   3425     1   0.10969 276646.080000
   3428   3429     1   0.09730 310787.520000
   3430   3431     1   0.10969 276646.080000
   3430   3432     1   0.10969 276646.080000
   3433   3434     1   0.10969 276646.080000
   3433   3435     1   0.10969 276646.080000
   3438   3439     1   0.09730 310787.520000
   3441   3442     1   0.10969 276646.080000
   3441   3443     1   0.10969 276646.080000
   3444   3445     1   0.10969 276646.080000
   3444   3446     1   0.10969 276646.080000
   3447   3448     1   0.10969 276646.080000
   3447   3449     1   0.10969 276646.080000
   3451   3452     1   0.10969 276646.080000
   3451   3453     1   0.10969 276646.080000
   3454   3455     1   0.10969 276646.080000
   3454   3456     1   0.10969 276646.080000
   3459   3460     1   0.09730 310787.520000
   3461   3462     1   0.10969 276646.080000
   3461   3463     1   0.10969 276646.080000
   3464   3465     1   0.10969 276646.080000
   3464   3466     1   0.10969 276646.080000
   3469   3470     1   0.09730 310787.520000
   3472   3473     1   0.10969 276646.080000
   3472   3474     1   0.10969 276646.080000
   3475   3476     1   0.10969 276646.080000
   3475   3477     1   0.10969 276646.080000
   3478   3479     1   0.10969 276646.080000
   3478   3480     1   0.10969 276646.080000
   3482   3483     1   0.10969 276646.080000
   3482   3484     1   0.10969 276646.080000
   3485   3486     1   0.10969 276646.080000
   3485   3487     1   0.10969 276646.080000
   3490   3491     1   0.09730 310787.520000
   3492   3493     1   0.10969 276646.080000
   3492   3494     1   0.10969 276646.080000
   3495   3496     1   0.10969 276646.080000
   3495   3497     1   0.10969 276646.080000
   3500   3501     1   0.09730 310787.520000
   3503   3504     1   0.10969 276646.080000
   3503   3505     1   0.10969 276646.080000
   3506   3507     1   0.10969 276646.080000
   3506   3508     1   0.10969 276646.080000
   3509   3510     1   0.10969 276646.080000
   3509   3511     1   0.10969 276646.080000
   3513   3514     1   0.10969 276646.080000
   3513   3515     1   0.10969 276646.080000
   3516   3517     1   0.10969 276646.080000
   3516   3518     1   0.10969 276646.080000
   3521   3522     1   0.09730 310787.520000
   3523   3524     1   0.10969 276646.080000
   3523   3525     1   0.10969 276646.080000
   3526   3527     1   0.10969 276646.080000
   3526   3528     1   0.10969 276646.080000
   3531   3532     1   0.09730 310787.520000
   3534   3535     1   0.10969 276646.080000
   3534   3536     1   0.10969 276646.080000
   3537   3538     1   0.10969 276646.080000
   3537   3539     1   0.10969 276646.080000
   3540   3541     1   0.10969 276646.080000
   3540   3542     1   0.10969 276646.080000
   3544   3545     1   0.10969 276646.080000
   3544   3546     1   0.10969 276646.080000
   3547   3548     1   0.10969 276646.080000
   3547   3549     1   0.10969 276646.080000
   3552   3553     1   0.09730 310787.520000
   3554   3555     1   0.10969 276646.080000
   3554   3556     1   0.10969 276646.080000
   3557   3558     1   0.10969 276646.080000
   3557   3559     1   0.10969 276646.080000
   3562   3563     1   0.09730 310787.520000
   3565   3566     1   0.10969 276646.080000
   3565   3567     1   0.10969 276646.080000
   3568   3569     1   0.10969 276646.080000
   3568   3570     1   0.10969 276646.080000
   3571   3572     1   0.10969 276646.080000
   3571   3573     1   0.10969 276646.080000
   3575   3576     1   0.10969 276646.080000
   3575   3577     1   0.10969 276646.080000
   3578   3579     1   0.10969 276646.080000
   3578   3580     1   0.10969 276646.080000
   3583   3584     1   0.09730 310787.520000
   3585   3586     1   0.10969 276646.080000
   3585   3587     1   0.10969 276646.080000
   3588   3589     1   0.10969 276646.080000
   3588   3590     1   0.10969 276646.080000
   3593   3594     1   0.09730 310787.520000
   3596   3597     1   0.10969 276646.080000
   3596   3598     1   0.10969 276646.080000
   3599   3600     1   0.10969 276646.080000
   3599   3601     1   0.10969 276646.080000
   3602   3603     1   0.10969 276646.080000
   3602   3604     1   0.10969 276646.080000
   3606   3607     1   0.10969 276646.080000
   3606   3608     1   0.10969 276646.080000
   3609   3610     1   0.10969 276646.080000
   3609   3611     1   0.10969 276646.080000
   3614   3615     1   0.09730 310787.520000
   3616   3617     1   0.10969 276646.080000
   3616   3618     1   0.10969 276646.080000
   3619   3620     1   0.10969 276646.080000
   3619   3621     1   0.10969 276646.080000
   3624   3625     1   0.09730 310787.520000
   3627   3628     1   0.10969 276646.080000
   3627   3629     1   0.10969 276646.080000
   3630   3631     1   0.10969 276646.080000
   3630   3632     1   0.10969 276646.080000
   3633   3634     1   0.10969 276646.080000
   3633   3635     1   0.10969 276646.080000
   3637   3638     1   0.10969 276646.080000
   3637   3639     1   0.10969 276646.080000
   3640   3641     1   0.10969 276646.080000
   3640   3642     1   0.10969 276646.080000
   3645   3646     1   0.09730 310787.520000
   3647   3648     1   0.10969 276646.080000
   3647   3649     1   0.10969 276646.080000
   3650   3651     1   0.10969 276646.080000
   3650   3652     1   0.10969 276646.080000
   3655   3656     1   0.09730 310787.520000
   3658   3659     1   0.10969 276646.080000
   3658   3660     1   0.10969 276646.080000
   3661   3662     1   0.10969 276646.080000
   3661   3663     1   0.10969 276646.080000
   3664   3665     1   0.10969 276646.080000
   3664   3666     1   0.10969 276646.080000
   3668   3669     1   0.10969 276646.080000
   3668   3670     1   0.10969 276646.080000
   3671   3672     1   0.10969 276646.080000
   3671   3673     1   0.10969 276646.080000
   3676   3677     1   0.09730 310787.520000
   3678   3679     1   0.10969 276646.080000
   3678   3680     1   0.10969 276646.080000
   3681   3682     1   0.10969 276646.080000
   3681   3683     1   0.10969 276646.080000
   3686   3687     1   0.09730 310787.520000
   3689   3690     1   0.10969 276646.080000
   3689   3691     1   0.10969 276646.080000
   3692   3693     1   0.10969 276646.080000
   3692   3694     1   0.10969 276646.080000
   3695   3696     1   0.10969 276646.080000
   3695   3697     1   0.10969 276646.080000
   3699   3700     1   0.10969 276646.080000
   3699   3701     1   0.10969 276646.080000
   3702   3703     1   0.10969 276646.080000
   3702   3704     1   0.10969 276646.080000
   3707   3708     1   0.09730 310787.520000
   3709   3710     1   0.10969 276646.080000
   3709   3711     1   0.10969 276646.080000
   3712   3713     1   0.10969 276646.080000
   3712   3714     1   0.10969 276646.080000
   3717   3718     1   0.09730 310787.520000
   3720   3721     1   0.10969 276646.080000
   3720   3722     1   0.10969 276646.080000
   3723   3724     1   0.10969 276646.080000
   3723   3725     1   0.10969 276646.080000
   3726   3727     1   0.10969 276646.080000
   3726   3728     1   0.10969 276646.080000
   3730   3731     1   0.10969 276646.080000
   3730   3732     1   0.10969 276646.080000
   3733   3734     1   0.10969 276646.080000
   3733   3735     1   0.10969 276646.080000
   3738   3739     1   0.09730 310787.520000
   3740   3741     1   0.10969 276646.080000
   3740   3742     1   0.10969 276646.080000
   3743   3744     1   0.10969 276646.080000
   3743   3745     1   0.10969 276646.080000
   3748   3749     1   0.09730 310787.520000
   3751   3752     1   0.10969 276646.080000
   3751   3753     1   0.10969 276646.080000
   3754   3755     1   0.10969 276646.080000
   3754   3756     1   0.10969 276646.080000
   3757   3758     1   0.10969 276646.080000
   3757   3759     1   0.10969 276646.080000
   3761   3762     1   0.10969 276646.080000
   3761   3763     1   0.10969 276646.080000
   3764   3765     1   0.10969 276646.080000
   3764   3766     1   0.10969 276646.080000
   3769   3770     1   0.09730 310787.520000
   3771   3772     1   0.10969 276646.080000
   3771   3773     1   0.10969 276646.080000
   3774   3775     1   0.10969 276646.080000
   3774   3776     1   0.10969 276646.080000
   3779   3780     1   0.09730 310787.520000

[ pairs ]
;    ai     aj funct         c0         c1         c2         c3
      1     14     1
      1     17     1
      2     11     1
      2     20     1
      5      8     1
      5     21     1
      8     28     1
      8     31     1
     11     22     1
     11     25     1
     14     40     1
     14     43     1
     17     34     1
     17     37     1
     20     49     1
     20     46     1
     21     55     1
     21     52     1
     22     37     1
     22    173     1
     25     34     1
     25    144     1
     28     43     1
     28    115     1
     31     40     1
     31     86     1
     34    164     1
     37    135     1
     40    106     1
     43     77     1
     46     68     1
     49     97     1
     52    126     1
     55    155     1
     58     83     1
     58     80     1
     58     77     1
     59     74     1
     59     68     1
     59    231     1
     62     71     1
     62     68     1
     62    202     1
     65     71     1
     65     74     1
     65     86     1
     71    222     1
     74    193     1
     80    184     1
     83    213     1
     87    112     1
     87    109     1
     87    106     1
     88    103     1
     88     97     1
     88    289     1
     91    100     1
     91     97     1
     91    260     1
     94    100     1
     94    103     1
     94    115     1
    100    280     1
    103    251     1
    109    242     1
    112    271     1
    116    141     1
    116    138     1
    116    135     1
    117    132     1
    117    126     1
    117    347     1
    120    129     1
    120    126     1
    120    318     1
    123    129     1
    123    132     1
    123    144     1
    129    338     1
    132    309     1
    138    300     1
    141    329     1
    145    170     1
    145    167     1
    145    164     1
    146    161     1
    146    155     1
    146    405     1
    149    158     1
    149    155     1
    149    376     1
    152    158     1
    152    161     1
    152    173     1
    158    396     1
    161    367     1
    167    358     1
    170    387     1
    174    199     1
    174    196     1
    174    193     1
    175    190     1
    175    184     1
    175    463     1
    178    187     1
    178    184     1
    178    434     1
    181    187     1
    181    190     1
    181    202     1
    187    454     1
    190    425     1
    196    416     1
    199    445     1
    203    228     1
    203    225     1
    203    222     1
    204    219     1
    204    213     1
    204    521     1
    207    216     1
    207    213     1
    207    492     1
    210    216     1
    210    219     1
    210    231     1
    216    512     1
    219    483     1
    225    474     1
    228    503     1
    232    257     1
    232    254     1
    232    251     1
    233    248     1
    233    242     1
    233    579     1
    236    245     1
    236    242     1
    236    550     1
    239    245     1
    239    248     1
    239    260     1
    245    570     1
    248    541     1
    254    532     1
    257    561     1
    261    286     1
    261    283     1
    261    280     1
    262    277     1
    262    271     1
    262    637     1
    265    274     1
    265    271     1
    265    608     1
    268    274     1
    268    277     1
    268    289     1
    274    628     1
    277    599     1
    283    590     1
    286    619     1
    290    315     1
    290    312     1
    290    309     1
    291    306     1
    291    300     1
    291    695     1
    294    303     1
    294    300     1
    294    666     1
    297    303     1
    297    306     1
    297    318     1
    303    686     1
    306    657     1
    312    648     1
    315    677     1
    319    344     1
    319    341     1
    319    338     1
    320    335     1
    320    329     1
    320    753     1
    323    332     1
    323    329     1
    323    724     1
    326    332     1
    326    335     1
    326    347     1
    332    744     1
    335    715     1
    341    706     1
    344    735     1
    348    373     1
    348    370     1
    348    367     1
    349    364     1
    349    358     1
    349    811     1
    352    361     1
    352    358     1
    352    782     1
    355    361     1
    355    364     1
    355    376     1
    361    802     1
    364    773     1
    370    764     1
    373    793     1
    377    402     1
    377    399     1
    377    396     1
    378    393     1
    378    387     1
    378    869     1
    381    390     1
    381    387     1
    381    840     1
    384    390     1
    384    393     1
    384    405     1
    390    860     1
    393    831     1
    399    822     1
    402    851     1
    406    431     1
    406    428     1
    406    425     1
    407    422     1
    407    416     1
    407    927     1
    410    419     1
    410    416     1
    410    898     1
    413    419     1
    413    422     1
    413    434     1
    419    918     1
    422    889     1
    428    880     1
    431    909     1
    435    460     1
    435    457     1
    435    454     1
    436    451     1
    436    445     1
    436    985     1
    439    448     1
    439    445     1
    439    956     1
    442    448     1
    442    451     1
    442    463     1
    448    976     1
    451    947     1
    457    938     1
    460    967     1
    464    489     1
    464    486     1
    464    483     1
    465    480     1
    465    474     1
    465   1043     1
    468    477     1
    468    474     1
    468   1014     1
    471    477     1
    471    480     1
    471    492     1
    477   1034     1
    480   1005     1
    486    996     1
    489   1025     1
    493    518     1
    493    515     1
    493    512     1
    494    509     1
    494    503     1
    494   1101     1
    497    506     1
    497    503     1
    497   1072     1
    500    506     1
    500    509     1
    500    521     1
    506   1092     1
    509   1063     1
    515   1054     1
    518   1083     1
    522    547     1
    522    544     1
    522    541     1
    523    538     1
    523    532     1
    523   1159     1
    526    535     1
    526    532     1
    526   1130     1
    529    535     1
    529    538     1
    529    550     1
    535   1150     1
    538   1121     1
    544   1112     1
    547   1141     1
    551    576     1
    551    573     1
    551    570     1
    552    567     1
    552    561     1
    552   1217     1
    555    564     1
    555    561     1
    555   1188     1
    558    564     1
    558    567     1
    558    579     1
    564   1208     1
    567   1179     1
    573   1170     1
    576   1199     1
    580    605     1
    580    602     1
    580    599     1
    581    596     1
    581    590     1
    581   1275     1
    584    593     1
    584    590     1
    584   1246     1
    587    593     1
    587    596     1
    587    608     1
    593   1266     1
    596   1237     1
    602   1228     1
    605   1257     1
    609    634     1
    609    631     1
    609    628     1
    610    625     1
    610    619     1
    610   1333     1
    613    622     1
    613    619     1
    613   1304     1
    616    622     1
    616    625     1
    616    637     1
    622   1324     1
    625   1295     1
    631   1286     1
    634   1315     1
    638    663     1
    638    660     1
    638    657     1
    639    654     1
    639    648     1
    639   1391     1
    642    651     1
    642    648     1
    642   1362     1
    645    651     1
    645    654     1
    645    666     1
    651   1382     1
    654   1353     1
    660   1344     1
    663   1373     1
    667    692     1
    667    689     1
    667    686     1
    668    683     1
    668    677     1
    668   1449     1
    671    680     1
    671    677     1
    671   1420     1
    674    680     1
    674    683     1
    674    695     1
    680   1440     1
    683   1411     1
    689   1402     1
    692   1431     1
    696    721     1
    696    718     1
    696    715     1
    697    712     1
    697    706     1
    697   1507     1
    700    709     1
    700    706     1
    700   1478     1
    703    709     1
    703    712     1
    703    724     1
    709   1498     1
    712   1469     1
    718   1460     1
    721   1489     1
    725    750     1
    725    747     1
    725    744     1
    726    741     1
    726    735     1
    726   1565     1
    729    738     1
    729    735     1
    729   1536     1
    732    738     1
    732    741     1
    732    753     1
    738   1556     1
    741   1527     1
    747   1518     1
    750   1547     1
    754    779     1
    754    776     1
    754    773     1
    755    770     1
    755    764     1
    755   1623     1
    758    767     1
    758    764     1
    758   1594     1
    761    767     1
    761    770     1
    761    782     1
    767   1614     1
    770   1585     1
    776   1576     1
    779   1605     1
    783    808     1
    783    805     1
    783    802     1
    784    799     1
    784    793     1
    784   1681     1
    787    796     1
    787    793     1
    787   1652     1
    790    796     1
    790    799     1
    790    811     1
    796   1672     1
    799   1643     1
    805   1634     1
    808   1663     1
    812    837     1
    812    834     1
    812    831     1
    813    828     1
    813    822     1
    813   1739     1
    816    825     1
    816    822     1
    816   1710     1
    819    825     1
    819    828     1
    819    840     1
    825   1730     1
    828   1701     1
    834   1692     1
    837   1721     1
    841    866     1
    841    863     1
    841    860     1
    842    857     1
    842    851     1
    842   1797     1
    845    854     1
    845    851     1
    845   1768     1
    848    854     1
    848    857     1
    848    869     1
    854   1788     1
    857   1759     1
    863   1750     1
    866   1779     1
    870    895     1
    870    892     1
    870    889     1
    871    886     1
    871    880     1
    871   1859     1
    874    883     1
    874    880     1
    874   1828     1
    877    883     1
    877    886     1
    877    898     1
    883   1829     1
    886   1798     1
    892   1801     1
    895   1832     1
    899    924     1
    899    921     1
    899    918     1
    900    915     1
    900    909     1
    900   1921     1
    903    912     1
    903    909     1
    903   1890     1
    906    912     1
    906    915     1
    906    927     1
    912   1891     1
    915   1860     1
    921   1863     1
    924   1894     1
    928    953     1
    928    950     1
    928    947     1
    929    944     1
    929    938     1
    929   1983     1
    932    941     1
    932    938     1
    932   1952     1
    935    941     1
    935    944     1
    935    956     1
    941   1953     1
    944   1922     1
    950   1925     1
    953   1956     1
    957    982     1
    957    979     1
    957    976     1
    958    973     1
    958    967     1
    958   2045     1
    961    970     1
    961    967     1
    961   2014     1
    964    970     1
    964    973     1
    964    985     1
    970   2015     1
    973   1984     1
    979   1987     1
    982   2018     1
    986   1011     1
    986   1008     1
    986   1005     1
    987   1002     1
    987    996     1
    987   2107     1
    990    999     1
    990    996     1
    990   2076     1
    993    999     1
    993   1002     1
    993   1014     1
    999   2077     1
   1002   2046     1
   1008   2049     1
   1011   2080     1
   1015   1040     1
   1015   1037     1
   1015   1034     1
   1016   1031     1
   1016   1025     1
   1016   2169     1
   1019   1028     1
   1019   1025     1
   1019   2138     1
   1022   1028     1
   1022   1031     1
   1022   1043     1
   1028   2139     1
   1031   2108     1
   1037   2111     1
   1040   2142     1
   1044   1069     1
   1044   1066     1
   1044   1063     1
   1045   1060     1
   1045   1054     1
   1045   2231     1
   1048   1057     1
   1048   1054     1
   1048   2200     1
   1051   1057     1
   1051   1060     1
   1051   1072     1
   1057   2201     1
   1060   2170     1
   1066   2173     1
   1069   2204     1
   1073   1098     1
   1073   1095     1
   1073   1092     1
   1074   1089     1
   1074   1083     1
   1074   2293     1
   1077   1086     1
   1077   1083     1
   1077   2262     1
   1080   1086     1
   1080   1089     1
   1080   1101     1
   1086   2263     1
   1089   2232     1
   1095   2235     1
   1098   2266     1
   1102   1127     1
   1102   1124     1
   1102   1121     1
   1103   1118     1
   1103   1112     1
   1103   2355     1
   1106   1115     1
   1106   1112     1
   1106   2324     1
   1109   1115     1
   1109   1118     1
   1109   1130     1
   1115   2325     1
   1118   2294     1
   1124   2297     1
   1127   2328     1
   1131   1156     1
   1131   1153     1
   1131   1150     1
   1132   1147     1
   1132   1141     1
   1132   2417     1
   1135   1144     1
   1135   1141     1
   1135   2386     1
   1138   1144     1
   1138   1147     1
   1138   1159     1
   1144   2387     1
   1147   2356     1
   1153   2359     1
   1156   2390     1
   1160   1185     1
   1160   1182     1
   1160   1179     1
   1161   1176     1
   1161   1170     1
   1161   2479     1
   1164   1173     1
   1164   1170     1
   1164   2448     1
   1167   1173     1
   1167   1176     1
   1167   1188     1
   1173   2449     1
   1176   2418     1
   1182   2421     1
   1185   2452     1
   1189   1214     1
   1189   1211     1
   1189   1208     1
   1190   1205     1
   1190   1199     1
   1190   2541     1
   1193   1202     1
   1193   1199     1
   1193   2510     1
   1196   1202     1
   1196   1205     1
   1196   1217     1
   1202   2511     1
   1205   2480     1
   1211   2483     1
   1214   2514     1
   1218   1243     1
   1218   1240     1
   1218   1237     1
   1219   1234     1
   1219   1228     1
   1219   2603     1
   1222   1231     1
   1222   1228     1
   1222   2572     1
   1225   1231     1
   1225   1234     1
   1225   1246     1
   1231   2573     1
   1234   2542     1
   1240   2545     1
   1243   2576     1
   1247   1272     1
   1247   1269     1
   1247   1266     1
   1248   1263     1
   1248   1257     1
   1248   2665     1
   1251   1260     1
   1251   1257     1
   1251   2634     1
   1254   1260     1
   1254   1263     1
   1254   1275     1
   1260   2635     1
   1263   2604     1
   1269   2607     1
   1272   2638     1
   1276   1301     1
   1276   1298     1
   1276   1295     1
   1277   1292     1
   1277   1286     1
   1277   2727     1
   1280   1289     1
   1280   1286     1
   1280   2696     1
   1283   1289     1
   1283   1292     1
   1283   1304     1
   1289   2697     1
   1292   2666     1
   1298   2669     1
   1301   2700     1
   1305   1330     1
   1305   1327     1
   1305   1324     1
   1306   1321     1
   1306   1315     1
   1306   2789     1
   1309   1318     1
   1309   1315     1
   1309   2758     1
   1312   1318     1
   1312   1321     1
   1312   1333     1
   1318   2759     1
   1321   2728     1
   1327   2731     1
   1330   2762     1
   1334   1359     1
   1334   1356     1
   1334   1353     1
   1335   1350     1
   1335   1344     1
   1335   2851     1
   1338   1347     1
   1338   1344     1
   1338   2820     1
   1341   1347     1
   1341   1350     1
   1341   1362     1
   1347   2821     1
   1350   2790     1
   1356   2793     1
   1359   2824     1
   1363   1388     1
   1363   1385     1
   1363   1382     1
   1364   1379     1
   1364   1373     1
   1364   2913     1
   1367   1376     1
   1367   1373     1
   1367   2882     1
   1370   1376     1
   1370   1379     1
   1370   1391     1
   1376   2883     1
   1379   2852     1
   1385   2855     1
   1388   2886     1
   1392   1417     1
   1392   1414     1
   1392   1411     1
   1393   1408     1
   1393   1402     1
   1393   2975     1
   1396   1405     1
   1396   1402     1
   1396   2944     1
   1399   1405     1
   1399   1408     1
   1399   1420     1
   1405   2945     1
   1408   2914     1
   1414   2917     1
   1417   2948     1
   1421   1446     1
   1421   1443     1
   1421   1440     1
   1422   1437     1
   1422   1431     1
   1422   3037     1
   1425   1434     1
   1425   1431     1
   1425   3006     1
   1428   1434     1
   1428   1437     1
   1428   1449     1
   1434   3007     1
   1437   2976     1
   1443   2979     1
   1446   3010     1
   1450   1475     1
   1450   1472     1
   1450   1469     1
   1451   1466     1
   1451   1460     1
   1451   3099     1
   1454   1463     1
   1454   1460     1
   1454   3068     1
   1457   1463     1
   1457   1466     1
   1457   1478     1
   1463   3069     1
   1466   3038     1
   1472   3041     1
   1475   3072     1
   1479   1504     1
   1479   1501     1
   1479   1498     1
   1480   1495     1
   1480   1489     1
   1480   3161     1
   1483   1492     1
   1483   1489     1
   1483   3130     1
   1486   1492     1
   1486   1495     1
   1486   1507     1
   1492   3131     1
   1495   3100     1
   1501   3103     1
   1504   3134     1
   1508   1533     1
   1508   1530     1
   1508   1527     1
   1509   1524     1
   1509   1518     1
   1509   3223     1
   1512   1521     1
   1512   1518     1
   1512   3192     1
   1515   1521     1
   1515   1524     1
   1515   1536     1
   1521   3193     1
   1524   3162     1
   1530   3165     1
   1533   3196     1
   1537   1562     1
   1537   1559     1
   1537   1556     1
   1538   1553     1
   1538   1547     1
   1538   3285     1
   1541   1550     1
   1541   1547     1
   1541   3254     1
   1544   1550     1
   1544   1553     1
   1544   1565     1
   1550   3255     1
   1553   3224     1
   1559   3227     1
   1562   3258     1
   1566   1591     1
   1566   1588     1
   1566   1585     1
   1567   1582     1
   1567   1576     1
   1567   3347     1
   1570   1579     1
   1570   1576     1
   1570   3316     1
   1573   1579     1
   1573   1582     1
   1573   1594     1
   1579   3317     1
   1582   3286     1
   1588   3289     1
   1591   3320     1
   1595   1620     1
   1595   1617     1
   1595   1614     1
   1596   1611     1
   1596   1605     1
   1596   3409     1
   1599   1608     1
   1599   1605     1
   1599   3378     1
   1602   1608     1
   1602   1611     1
   1602   1623     1
   1608   3379     1
   1611   3348     1
   1617   3351     1
   1620   3382     1
   1624   1649     1
   1624   1646     1
   1624   1643     1
   1625   1640     1
   1625   1634     1
   1625   3471     1
   1628   1637     1
   1628   1634     1
   1628   3440     1
   1631   1637     1
   1631   1640     1
   1631   1652     1
   1637   3441     1
   1640   3410     1
   1646   3413     1
   1649   3444     1
   1653   1678     1
   1653   1675     1
   1653   1672     1
   1654   1669     1
   1654   1663     1
   1654   3533     1
   1657   1666     1
   1657   1663     1
   1657   3502     1
   1660   1666     1
   1660   1669     1
   1660   1681     1
   1666   3503     1
   1669   3472     1
   1675   3475     1
   1678   3506     1
   1682   1707     1
   1682   1704     1
   1682   1701     1
   1683   1698     1
   1683   1692     1
   1683   3595     1
   1686   1695     1
   1686   1692     1
   1686   3564     1
   1689   1695     1
   1689   1698     1
   1689   1710     1
   1695   3565     1
   1698   3534     1
   1704   3537     1
   1707   3568     1
   1711   1736     1
   1711   1733     1
   1711   1730     1
   1712   1727     1
   1712   1721     1
   1712   3657     1
   1715   1724     1
   1715   1721     1
   1715   3626     1
   1718   1724     1
   1718   1727     1
   1718   1739     1
   1724   3627     1
   1727   3596     1
   1733   3599     1
   1736   3630     1
   1740   1765     1
   1740   1762     1
   1740   1759     1
   1741   1756     1
   1741   1750     1
   1741   3719     1
   1744   1753     1
   1744   1750     1
   1744   3688     1
   1747   1753     1
   1747   1756     1
   1747   1768     1
   1753   3689     1
   1756   3658     1
   1762   3661     1
   1765   3692     1
   1769   1794     1
   1769   1791     1
   1769   1788     1
   1770   1785     1
   1770   1779     1
   1770   3781     1
   1773   1782     1
   1773   1779     1
   1773   3750     1
   1776   1782     1
   1776   1785     1
   1776   1797     1
   1782   3751     1
   1785   3720     1
   1791   3723     1
   1794   3754     1
   1798   1807     1
   1801   1808     1
   1801   1818     1
   1804   1828     1
   1804   1811     1
   1804   1821     1
   1807   1814     1
   1807   1824     1
   1808   1821     1
   1808   1815     1
   1808   1816     1
   1811   1818     1
   1818   1825     1
   1818   1826     1
   1829   1838     1
   1832   1839     1
   1832   1849     1
   1835   1842     1
   1835   1852     1
   1835   1859     1
   1838   1845     1
   1838   1855     1
   1839   1846     1
   1839   1847     1
   1839   1852     1
   1842   1849     1
   1849   1856     1
   1849   1857     1
   1860   1869     1
   1863   1870     1
   1863   1880     1
   1866   1890     1
   1866   1873     1
   1866   1883     1
   1869   1876     1
   1869   1886     1
   1870   1883     1
   1870   1877     1
   1870   1878     1
   1873   1880     1
   1880   1887     1
   1880   1888     1
   1891   1900     1
   1894   1901     1
   1894   1911     1
   1897   1904     1
   1897   1914     1
   1897   1921     1
   1900   1907     1
   1900   1917     1
   1901   1908     1
   1901   1909     1
   1901   1914     1
   1904   1911     1
   1911   1918     1
   1911   1919     1
   1922   1931     1
   1925   1932     1
   1925   1942     1
   1928   1952     1
   1928   1935     1
   1928   1945     1
   1931   1938     1
   1931   1948     1
   1932   1945     1
   1932   1939     1
   1932   1940     1
   1935   1942     1
   1942   1949     1
   1942   1950     1
   1953   1962     1
   1956   1963     1
   1956   1973     1
   1959   1966     1
   1959   1976     1
   1959   1983     1
   1962   1969     1
   1962   1979     1
   1963   1970     1
   1963   1971     1
   1963   1976     1
   1966   1973     1
   1973   1980     1
   1973   1981     1
   1984   1993     1
   1987   1994     1
   1987   2004     1
   1990   2014     1
   1990   1997     1
   1990   2007     1
   1993   2000     1
   1993   2010     1
   1994   2007     1
   1994   2001     1
   1994   2002     1
   1997   2004     1
   2004   2011     1
   2004   2012     1
   2015   2024     1
   2018   2025     1
   2018   2035     1
   2021   2028     1
   2021   2038     1
   2021   2045     1
   2024   2031     1
   2024   2041     1
   2025   2032     1
   2025   2033     1
   2025   2038     1
   2028   2035     1
   2035   2042     1
   2035   2043     1
   2046   2055     1
   2049   2056     1
   2049   2066     1
   2052   2076     1
   2052   2059     1
   2052   2069     1
   2055   2062     1
   2055   2072     1
   2056   2069     1
   2056   2063     1
   2056   2064     1
   2059   2066     1
   2066   2073     1
   2066   2074     1
   2077   2086     1
   2080   2087     1
   2080   2097     1
   2083   2090     1
   2083   2100     1
   2083   2107     1
   2086   2093     1
   2086   2103     1
   2087   2094     1
   2087   2095     1
   2087   2100     1
   2090   2097     1
   2097   2104     1
   2097   2105     1
   2108   2117     1
   2111   2118     1
   2111   2128     1
   2114   2138     1
   2114   2121     1
   2114   2131     1
   2117   2124     1
   2117   2134     1
   2118   2131     1
   2118   2125     1
   2118   2126     1
   2121   2128     1
   2128   2135     1
   2128   2136     1
   2139   2148     1
   2142   2149     1
   2142   2159     1
   2145   2152     1
   2145   2162     1
   2145   2169     1
   2148   2155     1
   2148   2165     1
   2149   2156     1
   2149   2157     1
   2149   2162     1
   2152   2159     1
   2159   2166     1
   2159   2167     1
   2170   2179     1
   2173   2180     1
   2173   2190     1
   2176   2200     1
   2176   2183     1
   2176   2193     1
   2179   2186     1
   2179   2196     1
   2180   2193     1
   2180   2187     1
   2180   2188     1
   2183   2190     1
   2190   2197     1
   2190   2198     1
   2201   2210     1
   2204   2211     1
   2204   2221     1
   2207   2214     1
   2207   2224     1
   2207   2231     1
   2210   2217     1
   2210   2227     1
   2211   2218     1
   2211   2219     1
   2211   2224     1
   2214   2221     1
   2221   2228     1
   2221   2229     1
   2232   2241     1
   2235   2242     1
   2235   2252     1
   2238   2262     1
   2238   2245     1
   2238   2255     1
   2241   2248     1
   2241   2258     1
   2242   2255     1
   2242   2249     1
   2242   2250     1
   2245   2252     1
   2252   2259     1
   2252   2260     1
   2263   2272     1
   2266   2273     1
   2266   2283     1
   2269   2276     1
   2269   2286     1
   2269   2293     1
   2272   2279     1
   2272   2289     1
   2273   2280     1
   2273   2281     1
   2273   2286     1
   2276   2283     1
   2283   2290     1
   2283   2291     1
   2294   2303     1
   2297   2304     1
   2297   2314     1
   2300   2324     1
   2300   2307     1
   2300   2317     1
   2303   2310     1
   2303   2320     1
   2304   2317     1
   2304   2311     1
   2304   2312     1
   2307   2314     1
   2314   2321     1
   2314   2322     1
   2325   2334     1
   2328   2335     1
   2328   2345     1
   2331   2338     1
   2331   2348     1
   2331   2355     1
   2334   2341     1
   2334   2351     1
   2335   2342     1
   2335   2343     1
   2335   2348     1
   2338   2345     1
   2345   2352     1
   2345   2353     1
   2356   2365     1
   2359   2366     1
   2359   2376     1
   2362   2386     1
   2362   2369     1
   2362   2379     1
   2365   2372     1
   2365   2382     1
   2366   2379     1
   2366   2373     1
   2366   2374     1
   2369   2376     1
   2376   2383     1
   2376   2384     1
   2387   2396     1
   2390   2397     1
   2390   2407     1
   2393   2400     1
   2393   2410     1
   2393   2417     1
   2396   2403     1
   2396   2413     1
   2397   2404     1
   2397   2405     1
   2397   2410     1
   2400   2407     1
   2407   2414     1
   2407   2415     1
   2418   2427     1
   2421   2428     1
   2421   2438     1
   2424   2448     1
   2424   2431     1
   2424   2441     1
   2427   2434     1
   2427   2444     1
   2428   2441     1
   2428   2435     1
   2428   2436     1
   2431   2438     1
   2438   2445     1
   2438   2446     1
   2449   2458     1
   2452   2459     1
   2452   2469     1
   2455   2462     1
   2455   2472     1
   2455   2479     1
   2458   2465     1
   2458   2475     1
   2459   2466     1
   2459   2467     1
   2459   2472     1
   2462   2469     1
   2469   2476     1
   2469   2477     1
   2480   2489     1
   2483   2490     1
   2483   2500     1
   2486   2510     1
   2486   2493     1
   2486   2503     1
   2489   2496     1
   2489   2506     1
   2490   2503     1
   2490   2497     1
   2490   2498     1
   2493   2500     1
   2500   2507     1
   2500   2508     1
   2511   2520     1
   2514   2521     1
   2514   2531     1
   2517   2524     1
   2517   2534     1
   2517   2541     1
   2520   2527     1
   2520   2537     1
   2521   2528     1
   2521   2529     1
   2521   2534     1
   2524   2531     1
   2531   2538     1
   2531   2539     1
   2542   2551     1
   2545   2552     1
   2545   2562     1
   2548   2572     1
   2548   2555     1
   2548   2565     1
   2551   2558     1
   2551   2568     1
   2552   2565     1
   2552   2559     1
   2552   2560     1
   2555   2562     1
   2562   2569     1
   2562   2570     1
   2573   2582     1
   2576   2583     1
   2576   2593     1
   2579   2586     1
   2579   2596     1
   2579   2603     1
   2582   2589     1
   2582   2599     1
   2583   2590     1
   2583   2591     1
   2583   2596     1
   2586   2593     1
   2593   2600     1
   2593   2601     1
   2604   2613     1
   2607   2614     1
   2607   2624     1
   2610   2634     1
   2610   2617     1
   2610   2627     1
   2613   2620     1
   2613   2630     1
   2614   2627     1
   2614   2621     1
   2614   2622     1
   2617   2624     1
   2624   2631     1
   2624   2632     1
   2635   2644     1
   2638   2645     1
   2638   2655     1
   2641   2648     1
   2641   2658     1
   2641   2665     1
   2644   2651     1
   2644   2661     1
   2645   2652     1
   2645   2653     1
   2645   2658     1
   2648   2655     1
   2655   2662     1
   2655   2663     1
   2666   2675     1
   2669   2676     1
   2669   2686     1
   2672   2696     1
   2672   2679     1
   2672   2689     1
   2675   2682     1
   2675   2692     1
   2676   2689     1
   2676   2683     1
   2676   2684     1
   2679   2686     1
   2686   2693     1
   2686   2694     1
   2697   2706     1
   2700   2707     1
   2700   2717     1
   2703   2710     1
   2703   2720     1
   2703   2727     1
   2706   2713     1
   2706   2723     1
   2707   2714     1
   2707   2715     1
   2707   2720     1
   2710   2717     1
   2717   2724     1
   2717   2725     1
   2728   2737     1
   2731   2738     1
   2731   2748     1
   2734   2758     1
   2734   2741     1
   2734   2751     1
   2737   2744     1
   2737   2754     1
   2738   2751     1
   2738   2745     1
   2738   2746     1
   2741   2748     1
   2748   2755     1
   2748   2756     1
   2759   2768     1
   2762   2769     1
   2762   2779     1
   2765   2772     1
   2765   2782     1
   2765   2789     1
   2768   2775     1
   2768   2785     1
   2769   2776     1
   2769   2777     1
   2769   2782     1
   2772   2779     1
   2779   2786     1
   2779   2787     1
   2790   2799     1
   2793   2800     1
   2793   2810     1
   2796   2820     1
   2796   2803     1
   2796   2813     1
   2799   2806     1
   2799   2816     1
   2800   2813     1
   2800   2807     1
   2800   2808     1
   2803   2810     1
   2810   2817     1
   2810   2818     1
   2821   2830     1
   2824   2831     1
   2824   2841     1
   2827   2834     1
   2827   2844     1
   2827   2851     1
   2830   2837     1
   2830   2847     1
   2831   2838     1
   2831   2839     1
   2831   2844     1
   2834   2841     1
   2841   2848     1
   2841   2849     1
   2852   2861     1
   2855   2862     1
   2855   2872     1
   2858   2882     1
   2858   2865     1
   2858   2875     1
   2861   2868     1
   2861   2878     1
   2862   2875     1
   2862   2869     1
   2862   2870     1
   2865   2872     1
   2872   2879     1
   2872   2880     1
   2883   2892     1
   2886   2893     1
   2886   2903     1
   2889   2896     1
   2889   2906     1
   2889   2913     1
   2892   2899     1
   2892   2909     1
   2893   2900     1
   2893   2901     1
   2893   2906     1
   2896   2903     1
   2903   2910     1
   2903   2911     1
   2914   2923     1
   2917   2924     1
   2917   2934     1
   2920   2944     1
   2920   2927     1
   2920   2937     1
   2923   2930     1
   2923   2940     1
   2924   2937     1
   2924   2931     1
   2924   2932     1
   2927   2934     1
   2934   2941     1
   2934   2942     1
   2945   2954     1
   2948   2955     1
   2948   2965     1
   2951   2958     1
   2951   2968     1
   2951   2975     1
   2954   2961     1
   2954   2971     1
   2955   2962     1
   2955   2963     1
   2955   2968     1
   2958   2965     1
   2965   2972     1
   2965   2973     1
   2976   2985     1
   2979   2986     1
   2979   2996     1
   2982   3006     1
   2982   2989     1
   2982   2999     1
   2985   2992     1
   2985   3002     1
   2986   2999     1
   2986   2993     1
   2986   2994     1
   2989   2996     1
   2996   3003     1
   2996   3004     1
   3007   3016     1
   3010   3017     1
   3010   3027     1
   3013   3020     1
   3013   3030     1
   3013   3037     1
   3016   3023     1
   3016   3033     1
   3017   3024     1
   3017   3025     1
   3017   3030     1
   3020   3027     1
   3027   3034     1
   3027   3035     1
   3038   3047     1
   3041   3048     1
   3041   3058     1
   3044   3068     1
   3044   3051     1
   3044   3061     1
   3047   3054     1
   3047   3064     1
   3048   3061     1
   3048   3055     1
   3048   3056     1
   3051   3058     1
   3058   3065     1
   3058   3066     1
   3069   3078     1
   3072   3079     1
   3072   3089     1
   3075   3082     1
   3075   3092     1
   3075   3099     1
   3078   3085     1
   3078   3095     1
   3079   3086     1
   3079   3087     1
   3079   3092     1
   3082   3089     1
   3089   3096     1
   3089   3097     1
   3100   3109     1
   3103   3110     1
   3103   3120     1
   3106   3130     1
   3106   3113     1
   3106   3123     1
   3109   3116     1
   3109   3126     1
   3110   3123     1
   3110   3117     1
   3110   3118     1
   3113   3120     1
   3120   3127     1
   3120   3128     1
   3131   3140     1
   3134   3141     1
   3134   3151     1
   3137   3144     1
   3137   3154     1
   3137   3161     1
   3140   3147     1
   3140   3157     1
   3141   3148     1
   3141   3149     1
   3141   3154     1
   3144   3151     1
   3151   3158     1
   3151   3159     1
   3162   3171     1
   3165   3172     1
   3165   3182     1
   3168   3192     1
   3168   3175     1
   3168   3185     1
   3171   3178     1
   3171   3188     1
   3172   3185     1
   3172   3179     1
   3172   3180     1
   3175   3182     1
   3182   3189     1
   3182   3190     1
   3193   3202     1
   3196   3203     1
   3196   3213     1
   3199   3206     1
   3199   3216     1
   3199   3223     1
   3202   3209     1
   3202   3219     1
   3203   3210     1
   3203   3211     1
   3203   3216     1
   3206   3213     1
   3213   3220     1
   3213   3221     1
   3224   3233     1
   3227   3234     1
   3227   3244     1
   3230   3254     1
   3230   3237     1
   3230   3247     1
   3233   3240     1
   3233   3250     1
   3234   3247     1
   3234   3241     1
   3234   3242     1
   3237   3244     1
   3244   3251     1
   3244   3252     1
   3255   3264     1
   3258   3265     1
   3258   3275     1
   3261   3268     1
   3261   3278     1
   3261   3285     1
   3264   3271     1
   3264   3281     1
   3265   3272     1
   3265   3273     1
   3265   3278     1
   3268   3275     1
   3275   3282     1
   3275   3283     1
   3286   3295     1
   3289   3296     1
   3289   3306     1
   3292   3316     1
   3292   3299     1
   3292   3309     1
   3295   3302     1
   3295   3312     1
   3296   3309     1
   3296   3303     1
   3296   3304     1
   3299   3306     1
   3306   3313     1
   3306   3314     1
   3317   3326     1
   3320   3327     1
   3320   3337     1
   3323   3330     1
   3323   3340     1
   3323   3347     1
   3326   3333     1
   3326   3343     1
   3327   3334     1
   3327   3335     1
   3327   3340     1
   3330   3337     1
   3337   3344     1
   3337   3345     1
   3348   3357     1
   3351   3358     1
   3351   3368     1
   3354   3378     1
   3354   3361     1
   3354   3371     1
   3357   3364     1
   3357   3374     1
   3358   3371     1
   3358   3365     1
   3358   3366     1
   3361   3368     1
   3368   3375     1
   3368   3376     1
   3379   3388     1
   3382   3389     1
   3382   3399     1
   3385   3392     1
   3385   3402     1
   3385   3409     1
   3388   3395     1
   3388   3405     1
   3389   3396     1
   3389   3397     1
   3389   3402     1
   3392   3399     1
   3399   3406     1
   3399   3407     1
   3410   3419     1
   3413   3420     1
   3413   3430     1
   3416   3440     1
   3416   3423     1
   3416   3433     1
   3419   3426     1
   3419   3436     1
   3420   3433     1
   3420   3427     1
   3420   3428     1
   3423   3430     1
   3430   3437     1
   3430   3438     1
   3441   3450     1
   3444   3451     1
   3444   3461     1
   3447   3454     1
   3447   3464     1
   3447   3471     1
   3450   3457     1
   3450   3467     1
   3451   3458     1
   3451   3459     1
   3451   3464     1
   3454   3461     1
   3461   3468     1
   3461   3469     1
   3472   3481     1
   3475   3482     1
   3475   3492     1
   3478   3502     1
   3478   3485     1
   3478   3495     1
   3481   3488     1
   3481   3498     1
   3482   3495     1
   3482   3489     1
   3482   3490     1
   3485   3492     1
   3492   3499     1
   3492   3500     1
   3503   3512     1
   3506   3513     1
   3506   3523     1
   3509   3516     1
   3509   3526     1
   3509   3533     1
   3512   3519     1
   3512   3529     1
   3513   3520     1
   3513   3521     1
   3513   3526     1
   3516   3523     1
   3523   3530     1
   3523   3531     1
   3534   3543     1
   3537   3544     1
   3537   3554     1
   3540   3564     1
   3540   3547     1
   3540   3557     1
   3543   3550     1
   3543   3560     1
   3544   3557     1
   3544   3551     1
   3544   3552     1
   3547   3554     1
   3554   3561     1
   3554   3562     1
   3565   3574     1
   3568   3575     1
   3568   3585     1
   3571   3578     1
   3571   3588     1
   3571   3595     1
   3574   3581     1
   3574   3591     1
   3575   3582     1
   3575   3583     1
   3575   3588     1
   3578   3585     1
   3585   3592     1
   3585   3593     1
   3596   3605     1
   3599   3606     1
   3599   3616     1
   3602   3626     1
   3602   3609     1
   3602   3619     1
   3605   3612     1
   3605   3622     1
   3606   3619     1
   3606   3613     1
   3606   3614     1
   3609   3616     1
   3616   3623     1
   3616   3624     1
   3627   3636     1
   3630   3637     1
   3630   3647     1
   3633   3640     1
   3633   3650     1
   3633   3657     1
   3636   3643     1
   3636   3653     1
   3637   3644     1
   3637   3645     1
   3637   3650     1
   3640   3647     1
   3647   3654     1
   3647   3655     1
   3658   3667     1
   3661   3668     1
   3661   3678     1
   3664   3688     1
   3664   3671     1
   3664   3681     1
   3667   3674     1
   3667   3684     1
   3668   3681     1
   3668   3675     1
   3668   3676     1
   3671   3678     1
   3678   3685     1
   3678   3686     1
   3689   3698     1
   3692   3699     1
   3692   3709     1
   3695   3702     1
   3695   3712     1
   3695   3719     1
   3698   3705     1
   3698   3715     1
   3699   3706     1
   3699   3707     1
   3699   3712     1
   3702   3709     1
   3709   3716     1
   3709   3717     1
   3720   3729     1
   3723   3730     1
   3723   3740     1
   3726   3750     1
   3726   3733     1
   3726   3743     1
   3729   3736     1
   3729   3746     1
   3730   3743     1
   3730   3737     1
   3730   3738     1
   3733   3740     1
   3740   3747     1
   3740   3748     1
   3751   3760     1
   3754   3761     1
   3754   3771     1
   3757   3764     1
   3757   3774     1
   3757   3781     1
   3760   3767     1
   3760   3777     1
   3761   3768     1
   3761   3769     1
   3761   3774     1
   3764   3771     1
   3771   3778     1
   3771   3779     1
      1      9     1
      1     10     1
      1     12     1
      1     13     1
      2      6     1
      2      7     1
      2     15     1
      2     16     1
      5      3     1
      3     14     1
      3      9     1
      3     10     1
      5      4     1
      4     14     1
      4      9     1
      4     10     1
      5     18     1
      5     19     1
      6     17     1
      6     12     1
      6     13     1
      7     17     1
      7     12     1
      7     13     1
      9     20     1
      9     15     1
      9     16     1
     10     20     1
     10     15     1
     10     16     1
     12     21     1
     12     18     1
     12     19     1
     13     21     1
     13     18     1
     13     19     1
     14     29     1
     14     30     1
     14     32     1
     14     33     1
     15     28     1
     15     31     1
     16     28     1
     16     31     1
     17     23     1
     17     24     1
     17     26     1
     17     27     1
     18     22     1
     18     25     1
     19     22     1
     19     25     1
     20     41     1
     20     42     1
     20     44     1
     20     45     1
     21     35     1
     21     36     1
     21     38     1
     21     39     1
     22     26     1
     22     27     1
     22     56     1
     22     57     1
     23     25     1
     23     55     1
     23     35     1
     23     36     1
     24     25     1
     24     55     1
     24     35     1
     24     36     1
     25     53     1
     25     54     1
     26     52     1
     26     38     1
     26     39     1
     27     52     1
     27     38     1
     27     39     1
     28     32     1
     28     33     1
     28     50     1
     28     51     1
     29     31     1
     29     49     1
     29     41     1
     29     42     1
     30     31     1
     30     49     1
     30     41     1
     30     42     1
     31     47     1
     31     48     1
     32     46     1
     32     44     1
     32     45     1
     33     46     1
     33     44     1
     33     45     1
     35    173     1
     35     56     1
     35     57     1
     36    173     1
     36     56     1
     36     57     1
     38    144     1
     38     53     1
     38     54     1
     39    144     1
     39     53     1
     39     54     1
     41    115     1
     41     50     1
     41     51     1
     42    115     1
     42     50     1
     42     51     1
     44     86     1
     44     47     1
     44     48     1
     45     86     1
     45     47     1
     45     48     1
     46     78     1
     46     79     1
     47     77     1
     48     77     1
     49    107     1
     49    108     1
     50    106     1
     51    106     1
     52    136     1
     52    137     1
     53    135     1
     54    135     1
     55    165     1
     55    166     1
     56    164     1
     57    164     1
     58     72     1
     58     73     1
     58     75     1
     58     76     1
     58     69     1
     58     70     1
     59     63     1
     59     64     1
     59     66     1
     59     67     1
     59     84     1
     59     85     1
     60     62     1
     60     65     1
     60     83     1
     60     72     1
     60     73     1
     61     62     1
     61     65     1
     61     83     1
     61     72     1
     61     73     1
     62     66     1
     62     67     1
     62     81     1
     62     82     1
     63     65     1
     63     80     1
     63     75     1
     63     76     1
     64     65     1
     64     80     1
     64     75     1
     64     76     1
     65     78     1
     65     79     1
     66     77     1
     66     69     1
     66     70     1
     67     77     1
     67     69     1
     67     70     1
     69     86     1
     69     78     1
     69     79     1
     70     86     1
     70     78     1
     70     79     1
     72    231     1
     72     84     1
     72     85     1
     73    231     1
     73     84     1
     73     85     1
     75    202     1
     75     81     1
     75     82     1
     76    202     1
     76     81     1
     76     82     1
     80    194     1
     80    195     1
     81    193     1
     82    193     1
     83    223     1
     83    224     1
     84    222     1
     85    222     1
     87    101     1
     87    102     1
     87    104     1
     87    105     1
     87     98     1
     87     99     1
     88     92     1
     88     93     1
     88     95     1
     88     96     1
     88    113     1
     88    114     1
     89     91     1
     89     94     1
     89    112     1
     89    101     1
     89    102     1
     90     91     1
     90     94     1
     90    112     1
     90    101     1
     90    102     1
     91     95     1
     91     96     1
     91    110     1
     91    111     1
     92     94     1
     92    109     1
     92    104     1
     92    105     1
     93     94     1
     93    109     1
     93    104     1
     93    105     1
     94    107     1
     94    108     1
     95    106     1
     95     98     1
     95     99     1
     96    106     1
     96     98     1
     96     99     1
     98    115     1
     98    107     1
     98    108     1
     99    115     1
     99    107     1
     99    108     1
    101    289     1
    101    113     1
    101    114     1
    102    289     1
    102    113     1
    102    114     1
    104    260     1
    104    110     1
    104    111     1
    105    260     1
    105    110     1
    105    111     1
    109    252     1
    109    253     1
    110    251     1
    111    251     1
    112    281     1
    112    282     1
    113    280     1
    114    280     1
    116    130     1
    116    131     1
    116    133     1
    116    134     1
    116    127     1
    116    128     1
    117    121     1
    117    122     1
    117    124     1
    117    125     1
    117    142     1
    117    143     1
    118    120     1
    118    123     1
    118    141     1
    118    130     1
    118    131     1
    119    120     1
    119    123     1
    119    141     1
    119    130     1
    119    131     1
    120    124     1
    120    125     1
    120    139     1
    120    140     1
    121    123     1
    121    138     1
    121    133     1
    121    134     1
    122    123     1
    122    138     1
    122    133     1
    122    134     1
    123    136     1
    123    137     1
    124    135     1
    124    127     1
    124    128     1
    125    135     1
    125    127     1
    125    128     1
    127    144     1
    127    136     1
    127    137     1
    128    144     1
    128    136     1
    128    137     1
    130    347     1
    130    142     1
    130    143     1
    131    347     1
    131    142     1
    131    143     1
    133    318     1
    133    139     1
    133    140     1
    134    318     1
    134    139     1
    134    140     1
    138    310     1
    138    311     1
    139    309     1
    140    309     1
    141    339     1
    141    340     1
    142    338     1
    143    338     1
    145    159     1
    145    160     1
    145    162     1
    145    163     1
    145    156     1
    145    157     1
    146    150     1
    146    151     1
    146    153     1
    146    154     1
    146    171     1
    146    172     1
    147    149     1
    147    152     1
    147    170     1
    147    159     1
    147    160     1
    148    149     1
    148    152     1
    148    170     1
    148    159     1
    148    160     1
    149    153     1
    149    154     1
    149    168     1
    149    169     1
    150    152     1
    150    167     1
    150    162     1
    150    163     1
    151    152     1
    151    167     1
    151    162     1
    151    163     1
    152    165     1
    152    166     1
    153    164     1
    153    156     1
    153    157     1
    154    164     1
    154    156     1
    154    157     1
    156    173     1
    156    165     1
    156    166     1
    157    173     1
    157    165     1
    157    166     1
    159    405     1
    159    171     1
    159    172     1
    160    405     1
    160    171     1
    160    172     1
    162    376     1
    162    168     1
    162    169     1
    163    376     1
    163    168     1
    163    169     1
    167    368     1
    167    369     1
    168    367     1
    169    367     1
    170    397     1
    170    398     1
    171    396     1
    172    396     1
    174    188     1
    174    189     1
    174    191     1
    174    192     1
    174    185     1
    174    186     1
    175    179     1
    175    180     1
    175    182     1
    175    183     1
    175    200     1
    175    201     1
    176    178     1
    176    181     1
    176    199     1
    176    188     1
    176    189     1
    177    178     1
    177    181     1
    177    199     1
    177    188     1
    177    189     1
    178    182     1
    178    183     1
    178    197     1
    178    198     1
    179    181     1
    179    196     1
    179    191     1
    179    192     1
    180    181     1
    180    196     1
    180    191     1
    180    192     1
    181    194     1
    181    195     1
    182    193     1
    182    185     1
    182    186     1
    183    193     1
    183    185     1
    183    186     1
    185    202     1
    185    194     1
    185    195     1
    186    202     1
    186    194     1
    186    195     1
    188    463     1
    188    200     1
    188    201     1
    189    463     1
    189    200     1
    189    201     1
    191    434     1
    191    197     1
    191    198     1
    192    434     1
    192    197     1
    192    198     1
    196    426     1
    196    427     1
    197    425     1
    198    425     1
    199    455     1
    199    456     1
    200    454     1
    201    454     1
    203    217     1
    203    218     1
    203    220     1
    203    221     1
    203    214     1
    203    215     1
    204    208     1
    204    209     1
    204    211     1
    204    212     1
    204    229     1
    204    230     1
    205    207     1
    205    210     1
    205    228     1
    205    217     1
    205    218     1
    206    207     1
    206    210     1
    206    228     1
    206    217     1
    206    218     1
    207    211     1
    207    212     1
    207    226     1
    207    227     1
    208    210     1
    208    225     1
    208    220     1
    208    221     1
    209    210     1
    209    225     1
    209    220     1
    209    221     1
    210    223     1
    210    224     1
    211    222     1
    211    214     1
    211    215     1
    212    222     1
    212    214     1
    212    215     1
    214    231     1
    214    223     1
    214    224     1
    215    231     1
    215    223     1
    215    224     1
    217    521     1
    217    229     1
    217    230     1
    218    521     1
    218    229     1
    218    230     1
    220    492     1
    220    226     1
    220    227     1
    221    492     1
    221    226     1
    221    227     1
    225    484     1
    225    485     1
    226    483     1
    227    483     1
    228    513     1
    228    514     1
    229    512     1
    230    512     1
    232    246     1
    232    247     1
    232    249     1
    232    250     1
    232    243     1
    232    244     1
    233    237     1
    233    238     1
    233    240     1
    233    241     1
    233    258     1
    233    259     1
    234    236     1
    234    239     1
    234    257     1
    234    246     1
    234    247     1
    235    236     1
    235    239     1
    235    257     1
    235    246     1
    235    247     1
    236    240     1
    236    241     1
    236    255     1
    236    256     1
    237    239     1
    237    254     1
    237    249     1
    237    250     1
    238    239     1
    238    254     1
    238    249     1
    238    250     1
    239    252     1
    239    253     1
    240    251     1
    240    243     1
    240    244     1
    241    251     1
    241    243     1
    241    244     1
    243    260     1
    243    252     1
    243    253     1
    244    260     1
    244    252     1
    244    253     1
    246    579     1
    246    258     1
    246    259     1
    247    579     1
    247    258     1
    247    259     1
    249    550     1
    249    255     1
    249    256     1
    250    550     1
    250    255     1
    250    256     1
    254    542     1
    254    543     1
    255    541     1
    256    541     1
    257    571     1
    257    572     1
    258    570     1
    259    570     1
    261    275     1
    261    276     1
    261    278     1
    261    279     1
    261    272     1
    261    273     1
    262    266     1
    262    267     1
    262    269     1
    262    270     1
    262    287     1
    262    288     1
    263    265     1
    263    268     1
    263    286     1
    263    275     1
    263    276     1
    264    265     1
    264    268     1
    264    286     1
    264    275     1
    264    276     1
    265    269     1
    265    270     1
    265    284     1
    265    285     1
    266    268     1
    266    283     1
    266    278     1
    266    279     1
    267    268     1
    267    283     1
    267    278     1
    267    279     1
    268    281     1
    268    282     1
    269    280     1
    269    272     1
    269    273     1
    270    280     1
    270    272     1
    270    273     1
    272    289     1
    272    281     1
    272    282     1
    273    289     1
    273    281     1
    273    282     1
    275    637     1
    275    287     1
    275    288     1
    276    637     1
    276    287     1
    276    288     1
    278    608     1
    278    284     1
    278    285     1
    279    608     1
    279    284     1
    279    285     1
    283    600     1
    283    601     1
    284    599     1
    285    599     1
    286    629     1
    286    630     1
    287    628     1
    288    628     1
    290    304     1
    290    305     1
    290    307     1
    290    308     1
    290    301     1
    290    302     1
    291    295     1
    291    296     1
    291    298     1
    291    299     1
    291    316     1
    291    317     1
    292    294     1
    292    297     1
    292    315     1
    292    304     1
    292    305     1
    293    294     1
    293    297     1
    293    315     1
    293    304     1
    293    305     1
    294    298     1
    294    299     1
    294    313     1
    294    314     1
    295    297     1
    295    312     1
    295    307     1
    295    308     1
    296    297     1
    296    312     1
    296    307     1
    296    308     1
    297    310     1
    297    311     1
    298    309     1
    298    301     1
    298    302     1
    299    309     1
    299    301     1
    299    302     1
    301    318     1
    301    310     1
    301    311     1
    302    318     1
    302    310     1
    302    311     1
    304    695     1
    304    316     1
    304    317     1
    305    695     1
    305    316     1
    305    317     1
    307    666     1
    307    313     1
    307    314     1
    308    666     1
    308    313     1
    308    314     1
    312    658     1
    312    659     1
    313    657     1
    314    657     1
    315    687     1
    315    688     1
    316    686     1
    317    686     1
    319    333     1
    319    334     1
    319    336     1
    319    337     1
    319    330     1
    319    331     1
    320    324     1
    320    325     1
    320    327     1
    320    328     1
    320    345     1
    320    346     1
    321    323     1
    321    326     1
    321    344     1
    321    333     1
    321    334     1
    322    323     1
    322    326     1
    322    344     1
    322    333     1
    322    334     1
    323    327     1
    323    328     1
    323    342     1
    323    343     1
    324    326     1
    324    341     1
    324    336     1
    324    337     1
    325    326     1
    325    341     1
    325    336     1
    325    337     1
    326    339     1
    326    340     1
    327    338     1
    327    330     1
    327    331     1
    328    338     1
    328    330     1
    328    331     1
    330    347     1
    330    339     1
    330    340     1
    331    347     1
    331    339     1
    331    340     1
    333    753     1
    333    345     1
    333    346     1
    334    753     1
    334    345     1
    334    346     1
    336    724     1
    336    342     1
    336    343     1
    337    724     1
    337    342     1
    337    343     1
    341    716     1
    341    717     1
    342    715     1
    343    715     1
    344    745     1
    344    746     1
    345    744     1
    346    744     1
    348    362     1
    348    363     1
    348    365     1
    348    366     1
    348    359     1
    348    360     1
    349    353     1
    349    354     1
    349    356     1
    349    357     1
    349    374     1
    349    375     1
    350    352     1
    350    355     1
    350    373     1
    350    362     1
    350    363     1
    351    352     1
    351    355     1
    351    373     1
    351    362     1
    351    363     1
    352    356     1
    352    357     1
    352    371     1
    352    372     1
    353    355     1
    353    370     1
    353    365     1
    353    366     1
    354    355     1
    354    370     1
    354    365     1
    354    366     1
    355    368     1
    355    369     1
    356    367     1
    356    359     1
    356    360     1
    357    367     1
    357    359     1
    357    360     1
    359    376     1
    359    368     1
    359    369     1
    360    376     1
    360    368     1
    360    369     1
    362    811     1
    362    374     1
    362    375     1
    363    811     1
    363    374     1
    363    375     1
    365    782     1
    365    371     1
    365    372     1
    366    782     1
    366    371     1
    366    372     1
    370    774     1
    370    775     1
    371    773     1
    372    773     1
    373    803     1
    373    804     1
    374    802     1
    375    802     1
    377    391     1
    377    392     1
    377    394     1
    377    395     1
    377    388     1
    377    389     1
    378    382     1
    378    383     1
    378    385     1
    378    386     1
    378    403     1
    378    404     1
    379    381     1
    379    384     1
    379    402     1
    379    391     1
    379    392     1
    380    381     1
    380    384     1
    380    402     1
    380    391     1
    380    392     1
    381    385     1
    381    386     1
    381    400     1
    381    401     1
    382    384     1
    382    399     1
    382    394     1
    382    395     1
    383    384     1
    383    399     1
    383    394     1
    383    395     1
    384    397     1
    384    398     1
    385    396     1
    385    388     1
    385    389     1
    386    396     1
    386    388     1
    386    389     1
    388    405     1
    388    397     1
    388    398     1
    389    405     1
    389    397     1
    389    398     1
    391    869     1
    391    403     1
    391    404     1
    392    869     1
    392    403     1
    392    404     1
    394    840     1
    394    400     1
    394    401     1
    395    840     1
    395    400     1
    395    401     1
    399    832     1
    399    833     1
    400    831     1
    401    831     1
    402    861     1
    402    862     1
    403    860     1
    404    860     1
    406    420     1
    406    421     1
    406    423     1
    406    424     1
    406    417     1
    406    418     1
    407    411     1
    407    412     1
    407    414     1
    407    415     1
    407    432     1
    407    433     1
    408    410     1
    408    413     1
    408    431     1
    408    420     1
    408    421     1
    409    410     1
    409    413     1
    409    431     1
    409    420     1
    409    421     1
    410    414     1
    410    415     1
    410    429     1
    410    430     1
    411    413     1
    411    428     1
    411    423     1
    411    424     1
    412    413     1
    412    428     1
    412    423     1
    412    424     1
    413    426     1
    413    427     1
    414    425     1
    414    417     1
    414    418     1
    415    425     1
    415    417     1
    415    418     1
    417    434     1
    417    426     1
    417    427     1
    418    434     1
    418    426     1
    418    427     1
    420    927     1
    420    432     1
    420    433     1
    421    927     1
    421    432     1
    421    433     1
    423    898     1
    423    429     1
    423    430     1
    424    898     1
    424    429     1
    424    430     1
    428    890     1
    428    891     1
    429    889     1
    430    889     1
    431    919     1
    431    920     1
    432    918     1
    433    918     1
    435    449     1
    435    450     1
    435    452     1
    435    453     1
    435    446     1
    435    447     1
    436    440     1
    436    441     1
    436    443     1
    436    444     1
    436    461     1
    436    462     1
    437    439     1
    437    442     1
    437    460     1
    437    449     1
    437    450     1
    438    439     1
    438    442     1
    438    460     1
    438    449     1
    438    450     1
    439    443     1
    439    444     1
    439    458     1
    439    459     1
    440    442     1
    440    457     1
    440    452     1
    440    453     1
    441    442     1
    441    457     1
    441    452     1
    441    453     1
    442    455     1
    442    456     1
    443    454     1
    443    446     1
    443    447     1
    444    454     1
    444    446     1
    444    447     1
    446    463     1
    446    455     1
    446    456     1
    447    463     1
    447    455     1
    447    456     1
    449    985     1
    449    461     1
    449    462     1
    450    985     1
    450    461     1
    450    462     1
    452    956     1
    452    458     1
    452    459     1
    453    956     1
    453    458     1
    453    459     1
    457    948     1
    457    949     1
    458    947     1
    459    947     1
    460    977     1
    460    978     1
    461    976     1
    462    976     1
    464    478     1
    464    479     1
    464    481     1
    464    482     1
    464    475     1
    464    476     1
    465    469     1
    465    470     1
    465    472     1
    465    473     1
    465    490     1
    465    491     1
    466    468     1
    466    471     1
    466    489     1
    466    478     1
    466    479     1
    467    468     1
    467    471     1
    467    489     1
    467    478     1
    467    479     1
    468    472     1
    468    473     1
    468    487     1
    468    488     1
    469    471     1
    469    486     1
    469    481     1
    469    482     1
    470    471     1
    470    486     1
    470    481     1
    470    482     1
    471    484     1
    471    485     1
    472    483     1
    472    475     1
    472    476     1
    473    483     1
    473    475     1
    473    476     1
    475    492     1
    475    484     1
    475    485     1
    476    492     1
    476    484     1
    476    485     1
    478   1043     1
    478    490     1
    478    491     1
    479   1043     1
    479    490     1
    479    491     1
    481   1014     1
    481    487     1
    481    488     1
    482   1014     1
    482    487     1
    482    488     1
    486   1006     1
    486   1007     1
    487   1005     1
    488   1005     1
    489   1035     1
    489   1036     1
    490   1034     1
    491   1034     1
    493    507     1
    493    508     1
    493    510     1
    493    511     1
    493    504     1
    493    505     1
    494    498     1
    494    499     1
    494    501     1
    494    502     1
    494    519     1
    494    520     1
    495    497     1
    495    500     1
    495    518     1
    495    507     1
    495    508     1
    496    497     1
    496    500     1
    496    518     1
    496    507     1
    496    508     1
    497    501     1
    497    502     1
    497    516     1
    497    517     1
    498    500     1
    498    515     1
    498    510     1
    498    511     1
    499    500     1
    499    515     1
    499    510     1
    499    511     1
    500    513     1
    500    514     1
    501    512     1
    501    504     1
    501    505     1
    502    512     1
    502    504     1
    502    505     1
    504    521     1
    504    513     1
    504    514     1
    505    521     1
    505    513     1
    505    514     1
    507   1101     1
    507    519     1
    507    520     1
    508   1101     1
    508    519     1
    508    520     1
    510   1072     1
    510    516     1
    510    517     1
    511   1072     1
    511    516     1
    511    517     1
    515   1064     1
    515   1065     1
    516   1063     1
    517   1063     1
    518   1093     1
    518   1094     1
    519   1092     1
    520   1092     1
    522    536     1
    522    537     1
    522    539     1
    522    540     1
    522    533     1
    522    534     1
    523    527     1
    523    528     1
    523    530     1
    523    531     1
    523    548     1
    523    549     1
    524    526     1
    524    529     1
    524    547     1
    524    536     1
    524    537     1
    525    526     1
    525    529     1
    525    547     1
    525    536     1
    525    537     1
    526    530     1
    526    531     1
    526    545     1
    526    546     1
    527    529     1
    527    544     1
    527    539     1
    527    540     1
    528    529     1
    528    544     1
    528    539     1
    528    540     1
    529    542     1
    529    543     1
    530    541     1
    530    533     1
    530    534     1
    531    541     1
    531    533     1
    531    534     1
    533    550     1
    533    542     1
    533    543     1
    534    550     1
    534    542     1
    534    543     1
    536   1159     1
    536    548     1
    536    549     1
    537   1159     1
    537    548     1
    537    549     1
    539   1130     1
    539    545     1
    539    546     1
    540   1130     1
    540    545     1
    540    546     1
    544   1122     1
    544   1123     1
    545   1121     1
    546   1121     1
    547   1151     1
    547   1152     1
    548   1150     1
    549   1150     1
    551    565     1
    551    566     1
    551    568     1
    551    569     1
    551    562     1
    551    563     1
    552    556     1
    552    557     1
    552    559     1
    552    560     1
    552    577     1
    552    578     1
    553    555     1
    553    558     1
    553    576     1
    553    565     1
    553    566     1
    554    555     1
    554    558     1
    554    576     1
    554    565     1
    554    566     1
    555    559     1
    555    560     1
    555    574     1
    555    575     1
    556    558     1
    556    573     1
    556    568     1
    556    569     1
    557    558     1
    557    573     1
    557    568     1
    557    569     1
    558    571     1
    558    572     1
    559    570     1
    559    562     1
    559    563     1
    560    570     1
    560    562     1
    560    563     1
    562    579     1
    562    571     1
    562    572     1
    563    579     1
    563    571     1
    563    572     1
    565   1217     1
    565    577     1
    565    578     1
    566   1217     1
    566    577     1
    566    578     1
    568   1188     1
    568    574     1
    568    575     1
    569   1188     1
    569    574     1
    569    575     1
    573   1180     1
    573   1181     1
    574   1179     1
    575   1179     1
    576   1209     1
    576   1210     1
    577   1208     1
    578   1208     1
    580    594     1
    580    595     1
    580    597     1
    580    598     1
    580    591     1
    580    592     1
    581    585     1
    581    586     1
    581    588     1
    581    589     1
    581    606     1
    581    607     1
    582    584     1
    582    587     1
    582    605     1
    582    594     1
    582    595     1
    583    584     1
    583    587     1
    583    605     1
    583    594     1
    583    595     1
    584    588     1
    584    589     1
    584    603     1
    584    604     1
    585    587     1
    585    602     1
    585    597     1
    585    598     1
    586    587     1
    586    602     1
    586    597     1
    586    598     1
    587    600     1
    587    601     1
    588    599     1
    588    591     1
    588    592     1
    589    599     1
    589    591     1
    589    592     1
    591    608     1
    591    600     1
    591    601     1
    592    608     1
    592    600     1
    592    601     1
    594   1275     1
    594    606     1
    594    607     1
    595   1275     1
    595    606     1
    595    607     1
    597   1246     1
    597    603     1
    597    604     1
    598   1246     1
    598    603     1
    598    604     1
    602   1238     1
    602   1239     1
    603   1237     1
    604   1237     1
    605   1267     1
    605   1268     1
    606   1266     1
    607   1266     1
    609    623     1
    609    624     1
    609    626     1
    609    627     1
    609    620     1
    609    621     1
    610    614     1
    610    615     1
    610    617     1
    610    618     1
    610    635     1
    610    636     1
    611    613     1
    611    616     1
    611    634     1
    611    623     1
    611    624     1
    612    613     1
    612    616     1
    612    634     1
    612    623     1
    612    624     1
    613    617     1
    613    618     1
    613    632     1
    613    633     1
    614    616     1
    614    631     1
    614    626     1
    614    627     1
    615    616     1
    615    631     1
    615    626     1
    615    627     1
    616    629     1
    616    630     1
    617    628     1
    617    620     1
    617    621     1
    618    628     1
    618    620     1
    618    621     1
    620    637     1
    620    629     1
    620    630     1
    621    637     1
    621    629     1
    621    630     1
    623   1333     1
    623    635     1
    623    636     1
    624   1333     1
    624    635     1
    624    636     1
    626   1304     1
    626    632     1
    626    633     1
    627   1304     1
    627    632     1
    627    633     1
    631   1296     1
    631   1297     1
    632   1295     1
    633   1295     1
    634   1325     1
    634   1326     1
    635   1324     1
    636   1324     1
    638    652     1
    638    653     1
    638    655     1
    638    656     1
    638    649     1
    638    650     1
    639    643     1
    639    644     1
    639    646     1
    639    647     1
    639    664     1
    639    665     1
    640    642     1
    640    645     1
    640    663     1
    640    652     1
    640    653     1
    641    642     1
    641    645     1
    641    663     1
    641    652     1
    641    653     1
    642    646     1
    642    647     1
    642    661     1
    642    662     1
    643    645     1
    643    660     1
    643    655     1
    643    656     1
    644    645     1
    644    660     1
    644    655     1
    644    656     1
    645    658     1
    645    659     1
    646    657     1
    646    649     1
    646    650     1
    647    657     1
    647    649     1
    647    650     1
    649    666     1
    649    658     1
    649    659     1
    650    666     1
    650    658     1
    650    659     1
    652   1391     1
    652    664     1
    652    665     1
    653   1391     1
    653    664     1
    653    665     1
    655   1362     1
    655    661     1
    655    662     1
    656   1362     1
    656    661     1
    656    662     1
    660   1354     1
    660   1355     1
    661   1353     1
    662   1353     1
    663   1383     1
    663   1384     1
    664   1382     1
    665   1382     1
    667    681     1
    667    682     1
    667    684     1
    667    685     1
    667    678     1
    667    679     1
    668    672     1
    668    673     1
    668    675     1
    668    676     1
    668    693     1
    668    694     1
    669    671     1
    669    674     1
    669    692     1
    669    681     1
    669    682     1
    670    671     1
    670    674     1
    670    692     1
    670    681     1
    670    682     1
    671    675     1
    671    676     1
    671    690     1
    671    691     1
    672    674     1
    672    689     1
    672    684     1
    672    685     1
    673    674     1
    673    689     1
    673    684     1
    673    685     1
    674    687     1
    674    688     1
    675    686     1
    675    678     1
    675    679     1
    676    686     1
    676    678     1
    676    679     1
    678    695     1
    678    687     1
    678    688     1
    679    695     1
    679    687     1
    679    688     1
    681   1449     1
    681    693     1
    681    694     1
    682   1449     1
    682    693     1
    682    694     1
    684   1420     1
    684    690     1
    684    691     1
    685   1420     1
    685    690     1
    685    691     1
    689   1412     1
    689   1413     1
    690   1411     1
    691   1411     1
    692   1441     1
    692   1442     1
    693   1440     1
    694   1440     1
    696    710     1
    696    711     1
    696    713     1
    696    714     1
    696    707     1
    696    708     1
    697    701     1
    697    702     1
    697    704     1
    697    705     1
    697    722     1
    697    723     1
    698    700     1
    698    703     1
    698    721     1
    698    710     1
    698    711     1
    699    700     1
    699    703     1
    699    721     1
    699    710     1
    699    711     1
    700    704     1
    700    705     1
    700    719     1
    700    720     1
    701    703     1
    701    718     1
    701    713     1
    701    714     1
    702    703     1
    702    718     1
    702    713     1
    702    714     1
    703    716     1
    703    717     1
    704    715     1
    704    707     1
    704    708     1
    705    715     1
    705    707     1
    705    708     1
    707    724     1
    707    716     1
    707    717     1
    708    724     1
    708    716     1
    708    717     1
    710   1507     1
    710    722     1
    710    723     1
    711   1507     1
    711    722     1
    711    723     1
    713   1478     1
    713    719     1
    713    720     1
    714   1478     1
    714    719     1
    714    720     1
    718   1470     1
    718   1471     1
    719   1469     1
    720   1469     1
    721   1499     1
    721   1500     1
    722   1498     1
    723   1498     1
    725    739     1
    725    740     1
    725    742     1
    725    743     1
    725    736     1
    725    737     1
    726    730     1
    726    731     1
    726    733     1
    726    734     1
    726    751     1
    726    752     1
    727    729     1
    727    732     1
    727    750     1
    727    739     1
    727    740     1
    728    729     1
    728    732     1
    728    750     1
    728    739     1
    728    740     1
    729    733     1
    729    734     1
    729    748     1
    729    749     1
    730    732     1
    730    747     1
    730    742     1
    730    743     1
    731    732     1
    731    747     1
    731    742     1
    731    743     1
    732    745     1
    732    746     1
    733    744     1
    733    736     1
    733    737     1
    734    744     1
    734    736     1
    734    737     1
    736    753     1
    736    745     1
    736    746     1
    737    753     1
    737    745     1
    737    746     1
    739   1565     1
    739    751     1
    739    752     1
    740   1565     1
    740    751     1
    740    752     1
    742   1536     1
    742    748     1
    742    749     1
    743   1536     1
    743    748     1
    743    749     1
    747   1528     1
    747   1529     1
    748   1527     1
    749   1527     1
    750   1557     1
    750   1558     1
    751   1556     1
    752   1556     1
    754    768     1
    754    769     1
    754    771     1
    754    772     1
    754    765     1
    754    766     1
    755    759     1
    755    760     1
    755    762     1
    755    763     1
    755    780     1
    755    781     1
    756    758     1
    756    761     1
    756    779     1
    756    768     1
    756    769     1
    757    758     1
    757    761     1
    757    779     1
    757    768     1
    757    769     1
    758    762     1
    758    763     1
    758    777     1
    758    778     1
    759    761     1
    759    776     1
    759    771     1
    759    772     1
    760    761     1
    760    776     1
    760    771     1
    760    772     1
    761    774     1
    761    775     1
    762    773     1
    762    765     1
    762    766     1
    763    773     1
    763    765     1
    763    766     1
    765    782     1
    765    774     1
    765    775     1
    766    782     1
    766    774     1
    766    775     1
    768   1623     1
    768    780     1
    768    781     1
    769   1623     1
    769    780     1
    769    781     1
    771   1594     1
    771    777     1
    771    778     1
    772   1594     1
    772    777     1
    772    778     1
    776   1586     1
    776   1587     1
    777   1585     1
    778   1585     1
    779   1615     1
    779   1616     1
    780   1614     1
    781   1614     1
    783    797     1
    783    798     1
    783    800     1
    783    801     1
    783    794     1
    783    795     1
    784    788     1
    784    789     1
    784    791     1
    784    792     1
    784    809     1
    784    810     1
    785    787     1
    785    790     1
    785    808     1
    785    797     1
    785    798     1
    786    787     1
    786    790     1
    786    808     1
    786    797     1
    786    798     1
    787    791     1
    787    792     1
    787    806     1
    787    807     1
    788    790     1
    788    805     1
    788    800     1
    788    801     1
    789    790     1
    789    805     1
    789    800     1
    789    801     1
    790    803     1
    790    804     1
    791    802     1
    791    794     1
    791    795     1
    792    802     1
    792    794     1
    792    795     1
    794    811     1
    794    803     1
    794    804     1
    795    811     1
    795    803     1
    795    804     1
    797   1681     1
    797    809     1
    797    810     1
    798   1681     1
    798    809     1
    798    810     1
    800   1652     1
    800    806     1
    800    807     1
    801   1652     1
    801    806     1
    801    807     1
    805   1644     1
    805   1645     1
    806   1643     1
    807   1643     1
    808   1673     1
    808   1674     1
    809   1672     1
    810   1672     1
    812    826     1
    812    827     1
    812    829     1
    812    830     1
    812    823     1
    812    824     1
    813    817     1
    813    818     1
    813    820     1
    813    821     1
    813    838     1
    813    839     1
    814    816     1
    814    819     1
    814    837     1
    814    826     1
    814    827     1
    815    816     1
    815    819     1
    815    837     1
    815    826     1
    815    827     1
    816    820     1
    816    821     1
    816    835     1
    816    836     1
    817    819     1
    817    834     1
    817    829     1
    817    830     1
    818    819     1
    818    834     1
    818    829     1
    818    830     1
    819    832     1
    819    833     1
    820    831     1
    820    823     1
    820    824     1
    821    831     1
    821    823     1
    821    824     1
    823    840     1
    823    832     1
    823    833     1
    824    840     1
    824    832     1
    824    833     1
    826   1739     1
    826    838     1
    826    839     1
    827   1739     1
    827    838     1
    827    839     1
    829   1710     1
    829    835     1
    829    836     1
    830   1710     1
    830    835     1
    830    836     1
    834   1702     1
    834   1703     1
    835   1701     1
    836   1701     1
    837   1731     1
    837   1732     1
    838   1730     1
    839   1730     1
    841    855     1
    841    856     1
    841    858     1
    841    859     1
    841    852     1
    841    853     1
    842    846     1
    842    847     1
    842    849     1
    842    850     1
    842    867     1
    842    868     1
    843    845     1
    843    848     1
    843    866     1
    843    855     1
    843    856     1
    844    845     1
    844    848     1
    844    866     1
    844    855     1
    844    856     1
    845    849     1
    845    850     1
    845    864     1
    845    865     1
    846    848     1
    846    863     1
    846    858     1
    846    859     1
    847    848     1
    847    863     1
    847    858     1
    847    859     1
    848    861     1
    848    862     1
    849    860     1
    849    852     1
    849    853     1
    850    860     1
    850    852     1
    850    853     1
    852    869     1
    852    861     1
    852    862     1
    853    869     1
    853    861     1
    853    862     1
    855   1797     1
    855    867     1
    855    868     1
    856   1797     1
    856    867     1
    856    868     1
    858   1768     1
    858    864     1
    858    865     1
    859   1768     1
    859    864     1
    859    865     1
    863   1760     1
    863   1761     1
    864   1759     1
    865   1759     1
    866   1789     1
    866   1790     1
    867   1788     1
    868   1788     1
    870    884     1
    870    885     1
    870    887     1
    870    888     1
    870    881     1
    870    882     1
    871    875     1
    871    876     1
    871    878     1
    871    879     1
    871    896     1
    871    897     1
    872    874     1
    872    877     1
    872    895     1
    872    884     1
    872    885     1
    873    874     1
    873    877     1
    873    895     1
    873    884     1
    873    885     1
    874    878     1
    874    879     1
    874    893     1
    874    894     1
    875    877     1
    875    892     1
    875    887     1
    875    888     1
    876    877     1
    876    892     1
    876    887     1
    876    888     1
    877    890     1
    877    891     1
    878    889     1
    878    881     1
    878    882     1
    879    889     1
    879    881     1
    879    882     1
    881    898     1
    881    890     1
    881    891     1
    882    898     1
    882    890     1
    882    891     1
    884   1859     1
    884    896     1
    884    897     1
    885   1859     1
    885    896     1
    885    897     1
    887   1828     1
    887    893     1
    887    894     1
    888   1828     1
    888    893     1
    888    894     1
    892   1799     1
    892   1800     1
    893   1798     1
    894   1798     1
    895   1830     1
    895   1831     1
    896   1829     1
    897   1829     1
    899    913     1
    899    914     1
    899    916     1
    899    917     1
    899    910     1
    899    911     1
    900    904     1
    900    905     1
    900    907     1
    900    908     1
    900    925     1
    900    926     1
    901    903     1
    901    906     1
    901    924     1
    901    913     1
    901    914     1
    902    903     1
    902    906     1
    902    924     1
    902    913     1
    902    914     1
    903    907     1
    903    908     1
    903    922     1
    903    923     1
    904    906     1
    904    921     1
    904    916     1
    904    917     1
    905    906     1
    905    921     1
    905    916     1
    905    917     1
    906    919     1
    906    920     1
    907    918     1
    907    910     1
    907    911     1
    908    918     1
    908    910     1
    908    911     1
    910    927     1
    910    919     1
    910    920     1
    911    927     1
    911    919     1
    911    920     1
    913   1921     1
    913    925     1
    913    926     1
    914   1921     1
    914    925     1
    914    926     1
    916   1890     1
    916    922     1
    916    923     1
    917   1890     1
    917    922     1
    917    923     1
    921   1861     1
    921   1862     1
    922   1860     1
    923   1860     1
    924   1892     1
    924   1893     1
    925   1891     1
    926   1891     1
    928    942     1
    928    943     1
    928    945     1
    928    946     1
    928    939     1
    928    940     1
    929    933     1
    929    934     1
    929    936     1
    929    937     1
    929    954     1
    929    955     1
    930    932     1
    930    935     1
    930    953     1
    930    942     1
    930    943     1
    931    932     1
    931    935     1
    931    953     1
    931    942     1
    931    943     1
    932    936     1
    932    937     1
    932    951     1
    932    952     1
    933    935     1
    933    950     1
    933    945     1
    933    946     1
    934    935     1
    934    950     1
    934    945     1
    934    946     1
    935    948     1
    935    949     1
    936    947     1
    936    939     1
    936    940     1
    937    947     1
    937    939     1
    937    940     1
    939    956     1
    939    948     1
    939    949     1
    940    956     1
    940    948     1
    940    949     1
    942   1983     1
    942    954     1
    942    955     1
    943   1983     1
    943    954     1
    943    955     1
    945   1952     1
    945    951     1
    945    952     1
    946   1952     1
    946    951     1
    946    952     1
    950   1923     1
    950   1924     1
    951   1922     1
    952   1922     1
    953   1954     1
    953   1955     1
    954   1953     1
    955   1953     1
    957    971     1
    957    972     1
    957    974     1
    957    975     1
    957    968     1
    957    969     1
    958    962     1
    958    963     1
    958    965     1
    958    966     1
    958    983     1
    958    984     1
    959    961     1
    959    964     1
    959    982     1
    959    971     1
    959    972     1
    960    961     1
    960    964     1
    960    982     1
    960    971     1
    960    972     1
    961    965     1
    961    966     1
    961    980     1
    961    981     1
    962    964     1
    962    979     1
    962    974     1
    962    975     1
    963    964     1
    963    979     1
    963    974     1
    963    975     1
    964    977     1
    964    978     1
    965    976     1
    965    968     1
    965    969     1
    966    976     1
    966    968     1
    966    969     1
    968    985     1
    968    977     1
    968    978     1
    969    985     1
    969    977     1
    969    978     1
    971   2045     1
    971    983     1
    971    984     1
    972   2045     1
    972    983     1
    972    984     1
    974   2014     1
    974    980     1
    974    981     1
    975   2014     1
    975    980     1
    975    981     1
    979   1985     1
    979   1986     1
    980   1984     1
    981   1984     1
    982   2016     1
    982   2017     1
    983   2015     1
    984   2015     1
    986   1000     1
    986   1001     1
    986   1003     1
    986   1004     1
    986    997     1
    986    998     1
    987    991     1
    987    992     1
    987    994     1
    987    995     1
    987   1012     1
    987   1013     1
    988    990     1
    988    993     1
    988   1011     1
    988   1000     1
    988   1001     1
    989    990     1
    989    993     1
    989   1011     1
    989   1000     1
    989   1001     1
    990    994     1
    990    995     1
    990   1009     1
    990   1010     1
    991    993     1
    991   1008     1
    991   1003     1
    991   1004     1
    992    993     1
    992   1008     1
    992   1003     1
    992   1004     1
    993   1006     1
    993   1007     1
    994   1005     1
    994    997     1
    994    998     1
    995   1005     1
    995    997     1
    995    998     1
    997   1014     1
    997   1006     1
    997   1007     1
    998   1014     1
    998   1006     1
    998   1007     1
   1000   2107     1
   1000   1012     1
   1000   1013     1
   1001   2107     1
   1001   1012     1
   1001   1013     1
   1003   2076     1
   1003   1009     1
   1003   1010     1
   1004   2076     1
   1004   1009     1
   1004   1010     1
   1008   2047     1
   1008   2048     1
   1009   2046     1
   1010   2046     1
   1011   2078     1
   1011   2079     1
   1012   2077     1
   1013   2077     1
   1015   1029     1
   1015   1030     1
   1015   1032     1
   1015   1033     1
   1015   1026     1
   1015   1027     1
   1016   1020     1
   1016   1021     1
   1016   1023     1
   1016   1024     1
   1016   1041     1
   1016   1042     1
   1017   1019     1
   1017   1022     1
   1017   1040     1
   1017   1029     1
   1017   1030     1
   1018   1019     1
   1018   1022     1
   1018   1040     1
   1018   1029     1
   1018   1030     1
   1019   1023     1
   1019   1024     1
   1019   1038     1
   1019   1039     1
   1020   1022     1
   1020   1037     1
   1020   1032     1
   1020   1033     1
   1021   1022     1
   1021   1037     1
   1021   1032     1
   1021   1033     1
   1022   1035     1
   1022   1036     1
   1023   1034     1
   1023   1026     1
   1023   1027     1
   1024   1034     1
   1024   1026     1
   1024   1027     1
   1026   1043     1
   1026   1035     1
   1026   1036     1
   1027   1043     1
   1027   1035     1
   1027   1036     1
   1029   2169     1
   1029   1041     1
   1029   1042     1
   1030   2169     1
   1030   1041     1
   1030   1042     1
   1032   2138     1
   1032   1038     1
   1032   1039     1
   1033   2138     1
   1033   1038     1
   1033   1039     1
   1037   2109     1
   1037   2110     1
   1038   2108     1
   1039   2108     1
   1040   2140     1
   1040   2141     1
   1041   2139     1
   1042   2139     1
   1044   1058     1
   1044   1059     1
   1044   1061     1
   1044   1062     1
   1044   1055     1
   1044   1056     1
   1045   1049     1
   1045   1050     1
   1045   1052     1
   1045   1053     1
   1045   1070     1
   1045   1071     1
   1046   1048     1
   1046   1051     1
   1046   1069     1
   1046   1058     1
   1046   1059     1
   1047   1048     1
   1047   1051     1
   1047   1069     1
   1047   1058     1
   1047   1059     1
   1048   1052     1
   1048   1053     1
   1048   1067     1
   1048   1068     1
   1049   1051     1
   1049   1066     1
   1049   1061     1
   1049   1062     1
   1050   1051     1
   1050   1066     1
   1050   1061     1
   1050   1062     1
   1051   1064     1
   1051   1065     1
   1052   1063     1
   1052   1055     1
   1052   1056     1
   1053   1063     1
   1053   1055     1
   1053   1056     1
   1055   1072     1
   1055   1064     1
   1055   1065     1
   1056   1072     1
   1056   1064     1
   1056   1065     1
   1058   2231     1
   1058   1070     1
   1058   1071     1
   1059   2231     1
   1059   1070     1
   1059   1071     1
   1061   2200     1
   1061   1067     1
   1061   1068     1
   1062   2200     1
   1062   1067     1
   1062   1068     1
   1066   2171     1
   1066   2172     1
   1067   2170     1
   1068   2170     1
   1069   2202     1
   1069   2203     1
   1070   2201     1
   1071   2201     1
   1073   1087     1
   1073   1088     1
   1073   1090     1
   1073   1091     1
   1073   1084     1
   1073   1085     1
   1074   1078     1
   1074   1079     1
   1074   1081     1
   1074   1082     1
   1074   1099     1
   1074   1100     1
   1075   1077     1
   1075   1080     1
   1075   1098     1
   1075   1087     1
   1075   1088     1
   1076   1077     1
   1076   1080     1
   1076   1098     1
   1076   1087     1
   1076   1088     1
   1077   1081     1
   1077   1082     1
   1077   1096     1
   1077   1097     1
   1078   1080     1
   1078   1095     1
   1078   1090     1
   1078   1091     1
   1079   1080     1
   1079   1095     1
   1079   1090     1
   1079   1091     1
   1080   1093     1
   1080   1094     1
   1081   1092     1
   1081   1084     1
   1081   1085     1
   1082   1092     1
   1082   1084     1
   1082   1085     1
   1084   1101     1
   1084   1093     1
   1084   1094     1
   1085   1101     1
   1085   1093     1
   1085   1094     1
   1087   2293     1
   1087   1099     1
   1087   1100     1
   1088   2293     1
   1088   1099     1
   1088   1100     1
   1090   2262     1
   1090   1096     1
   1090   1097     1
   1091   2262     1
   1091   1096     1
   1091   1097     1
   1095   2233     1
   1095   2234     1
   1096   2232     1
   1097   2232     1
   1098   2264     1
   1098   2265     1
   1099   2263     1
   1100   2263     1
   1102   1116     1
   1102   1117     1
   1102   1119     1
   1102   1120     1
   1102   1113     1
   1102   1114     1
   1103   1107     1
   1103   1108     1
   1103   1110     1
   1103   1111     1
   1103   1128     1
   1103   1129     1
   1104   1106     1
   1104   1109     1
   1104   1127     1
   1104   1116     1
   1104   1117     1
   1105   1106     1
   1105   1109     1
   1105   1127     1
   1105   1116     1
   1105   1117     1
   1106   1110     1
   1106   1111     1
   1106   1125     1
   1106   1126     1
   1107   1109     1
   1107   1124     1
   1107   1119     1
   1107   1120     1
   1108   1109     1
   1108   1124     1
   1108   1119     1
   1108   1120     1
   1109   1122     1
   1109   1123     1
   1110   1121     1
   1110   1113     1
   1110   1114     1
   1111   1121     1
   1111   1113     1
   1111   1114     1
   1113   1130     1
   1113   1122     1
   1113   1123     1
   1114   1130     1
   1114   1122     1
   1114   1123     1
   1116   2355     1
   1116   1128     1
   1116   1129     1
   1117   2355     1
   1117   1128     1
   1117   1129     1
   1119   2324     1
   1119   1125     1
   1119   1126     1
   1120   2324     1
   1120   1125     1
   1120   1126     1
   1124   2295     1
   1124   2296     1
   1125   2294     1
   1126   2294     1
   1127   2326     1
   1127   2327     1
   1128   2325     1
   1129   2325     1
   1131   1145     1
   1131   1146     1
   1131   1148     1
   1131   1149     1
   1131   1142     1
   1131   1143     1
   1132   1136     1
   1132   1137     1
   1132   1139     1
   1132   1140     1
   1132   1157     1
   1132   1158     1
   1133   1135     1
   1133   1138     1
   1133   1156     1
   1133   1145     1
   1133   1146     1
   1134   1135     1
   1134   1138     1
   1134   1156     1
   1134   1145     1
   1134   1146     1
   1135   1139     1
   1135   1140     1
   1135   1154     1
   1135   1155     1
   1136   1138     1
   1136   1153     1
   1136   1148     1
   1136   1149     1
   1137   1138     1
   1137   1153     1
   1137   1148     1
   1137   1149     1
   1138   1151     1
   1138   1152     1
   1139   1150     1
   1139   1142     1
   1139   1143     1
   1140   1150     1
   1140   1142     1
   1140   1143     1
   1142   1159     1
   1142   1151     1
   1142   1152     1
   1143   1159     1
   1143   1151     1
   1143   1152     1
   1145   2417     1
   1145   1157     1
   1145   1158     1
   1146   2417     1
   1146   1157     1
   1146   1158     1
   1148   2386     1
   1148   1154     1
   1148   1155     1
   1149   2386     1
   1149   1154     1
   1149   1155     1
   1153   2357     1
   1153   2358     1
   1154   2356     1
   1155   2356     1
   1156   2388     1
   1156   2389     1
   1157   2387     1
   1158   2387     1
   1160   1174     1
   1160   1175     1
   1160   1177     1
   1160   1178     1
   1160   1171     1
   1160   1172     1
   1161   1165     1
   1161   1166     1
   1161   1168     1
   1161   1169     1
   1161   1186     1
   1161   1187     1
   1162   1164     1
   1162   1167     1
   1162   1185     1
   1162   1174     1
   1162   1175     1
   1163   1164     1
   1163   1167     1
   1163   1185     1
   1163   1174     1
   1163   1175     1
   1164   1168     1
   1164   1169     1
   1164   1183     1
   1164   1184     1
   1165   1167     1
   1165   1182     1
   1165   1177     1
   1165   1178     1
   1166   1167     1
   1166   1182     1
   1166   1177     1
   1166   1178     1
   1167   1180     1
   1167   1181     1
   1168   1179     1
   1168   1171     1
   1168   1172     1
   1169   1179     1
   1169   1171     1
   1169   1172     1
   1171   1188     1
   1171   1180     1
   1171   1181     1
   1172   1188     1
   1172   1180     1
   1172   1181     1
   1174   2479     1
   1174   1186     1
   1174   1187     1
   1175   2479     1
   1175   1186     1
   1175   1187     1
   1177   2448     1
   1177   1183     1
   1177   1184     1
   1178   2448     1
   1178   1183     1
   1178   1184     1
   1182   2419     1
   1182   2420     1
   1183   2418     1
   1184   2418     1
   1185   2450     1
   1185   2451     1
   1186   2449     1
   1187   2449     1
   1189   1203     1
   1189   1204     1
   1189   1206     1
   1189   1207     1
   1189   1200     1
   1189   1201     1
   1190   1194     1
   1190   1195     1
   1190   1197     1
   1190   1198     1
   1190   1215     1
   1190   1216     1
   1191   1193     1
   1191   1196     1
   1191   1214     1
   1191   1203     1
   1191   1204     1
   1192   1193     1
   1192   1196     1
   1192   1214     1
   1192   1203     1
   1192   1204     1
   1193   1197     1
   1193   1198     1
   1193   1212     1
   1193   1213     1
   1194   1196     1
   1194   1211     1
   1194   1206     1
   1194   1207     1
   1195   1196     1
   1195   1211     1
   1195   1206     1
   1195   1207     1
   1196   1209     1
   1196   1210     1
   1197   1208     1
   1197   1200     1
   1197   1201     1
   1198   1208     1
   1198   1200     1
   1198   1201     1
   1200   1217     1
   1200   1209     1
   1200   1210     1
   1201   1217     1
   1201   1209     1
   1201   1210     1
   1203   2541     1
   1203   1215     1
   1203   1216     1
   1204   2541     1
   1204   1215     1
   1204   1216     1
   1206   2510     1
   1206   1212     1
   1206   1213     1
   1207   2510     1
   1207   1212     1
   1207   1213     1
   1211   2481     1
   1211   2482     1
   1212   2480     1
   1213   2480     1
   1214   2512     1
   1214   2513     1
   1215   2511     1
   1216   2511     1
   1218   1232     1
   1218   1233     1
   1218   1235     1
   1218   1236     1
   1218   1229     1
   1218   1230     1
   1219   1223     1
   1219   1224     1
   1219   1226     1
   1219   1227     1
   1219   1244     1
   1219   1245     1
   1220   1222     1
   1220   1225     1
   1220   1243     1
   1220   1232     1
   1220   1233     1
   1221   1222     1
   1221   1225     1
   1221   1243     1
   1221   1232     1
   1221   1233     1
   1222   1226     1
   1222   1227     1
   1222   1241     1
   1222   1242     1
   1223   1225     1
   1223   1240     1
   1223   1235     1
   1223   1236     1
   1224   1225     1
   1224   1240     1
   1224   1235     1
   1224   1236     1
   1225   1238     1
   1225   1239     1
   1226   1237     1
   1226   1229     1
   1226   1230     1
   1227   1237     1
   1227   1229     1
   1227   1230     1
   1229   1246     1
   1229   1238     1
   1229   1239     1
   1230   1246     1
   1230   1238     1
   1230   1239     1
   1232   2603     1
   1232   1244     1
   1232   1245     1
   1233   2603     1
   1233   1244     1
   1233   1245     1
   1235   2572     1
   1235   1241     1
   1235   1242     1
   1236   2572     1
   1236   1241     1
   1236   1242     1
   1240   2543     1
   1240   2544     1
   1241   2542     1
   1242   2542     1
   1243   2574     1
   1243   2575     1
   1244   2573     1
   1245   2573     1
   1247   1261     1
   1247   1262     1
   1247   1264     1
   1247   1265     1
   1247   1258     1
   1247   1259     1
   1248   1252     1
   1248   1253     1
   1248   1255     1
   1248   1256     1
   1248   1273     1
   1248   1274     1
   1249   1251     1
   1249   1254     1
   1249   1272     1
   1249   1261     1
   1249   1262     1
   1250   1251     1
   1250   1254     1
   1250   1272     1
   1250   1261     1
   1250   1262     1
   1251   1255     1
   1251   1256     1
   1251   1270     1
   1251   1271     1
   1252   1254     1
   1252   1269     1
   1252   1264     1
   1252   1265     1
   1253   1254     1
   1253   1269     1
   1253   1264     1
   1253   1265     1
   1254   1267     1
   1254   1268     1
   1255   1266     1
   1255   1258     1
   1255   1259     1
   1256   1266     1
   1256   1258     1
   1256   1259     1
   1258   1275     1
   1258   1267     1
   1258   1268     1
   1259   1275     1
   1259   1267     1
   1259   1268     1
   1261   2665     1
   1261   1273     1
   1261   1274     1
   1262   2665     1
   1262   1273     1
   1262   1274     1
   1264   2634     1
   1264   1270     1
   1264   1271     1
   1265   2634     1
   1265   1270     1
   1265   1271     1
   1269   2605     1
   1269   2606     1
   1270   2604     1
   1271   2604     1
   1272   2636     1
   1272   2637     1
   1273   2635     1
   1274   2635     1
   1276   1290     1
   1276   1291     1
   1276   1293     1
   1276   1294     1
   1276   1287     1
   1276   1288     1
   1277   1281     1
   1277   1282     1
   1277   1284     1
   1277   1285     1
   1277   1302     1
   1277   1303     1
   1278   1280     1
   1278   1283     1
   1278   1301     1
   1278   1290     1
   1278   1291     1
   1279   1280     1
   1279   1283     1
   1279   1301     1
   1279   1290     1
   1279   1291     1
   1280   1284     1
   1280   1285     1
   1280   1299     1
   1280   1300     1
   1281   1283     1
   1281   1298     1
   1281   1293     1
   1281   1294     1
   1282   1283     1
   1282   1298     1
   1282   1293     1
   1282   1294     1
   1283   1296     1
   1283   1297     1
   1284   1295     1
   1284   1287     1
   1284   1288     1
   1285   1295     1
   1285   1287     1
   1285   1288     1
   1287   1304     1
   1287   1296     1
   1287   1297     1
   1288   1304     1
   1288   1296     1
   1288   1297     1
   1290   2727     1
   1290   1302     1
   1290   1303     1
   1291   2727     1
   1291   1302     1
   1291   1303     1
   1293   2696     1
   1293   1299     1
   1293   1300     1
   1294   2696     1
   1294   1299     1
   1294   1300     1
   1298   2667     1
   1298   2668     1
   1299   2666     1
   1300   2666     1
   1301   2698     1
   1301   2699     1
   1302   2697     1
   1303   2697     1
   1305   1319     1
   1305   1320     1
   1305   1322     1
   1305   1323     1
   1305   1316     1
   1305   1317     1
   1306   1310     1
   1306   1311     1
   1306   1313     1
   1306   1314     1
   1306   1331     1
   1306   1332     1
   1307   1309     1
   1307   1312     1
   1307   1330     1
   1307   1319     1
   1307   1320     1
   1308   1309     1
   1308   1312     1
   1308   1330     1
   1308   1319     1
   1308   1320     1
   1309   1313     1
   1309   1314     1
   1309   1328     1
   1309   1329     1
   1310   1312     1
   1310   1327     1
   1310   1322     1
   1310   1323     1
   1311   1312     1
   1311   1327     1
   1311   1322     1
   1311   1323     1
   1312   1325     1
   1312   1326     1
   1313   1324     1
   1313   1316     1
   1313   1317     1
   1314   1324     1
   1314   1316     1
   1314   1317     1
   1316   1333     1
   1316   1325     1
   1316   1326     1
   1317   1333     1
   1317   1325     1
   1317   1326     1
   1319   2789     1
   1319   1331     1
   1319   1332     1
   1320   2789     1
   1320   1331     1
   1320   1332     1
   1322   2758     1
   1322   1328     1
   1322   1329     1
   1323   2758     1
   1323   1328     1
   1323   1329     1
   1327   2729     1
   1327   2730     1
   1328   2728     1
   1329   2728     1
   1330   2760     1
   1330   2761     1
   1331   2759     1
   1332   2759     1
   1334   1348     1
   1334   1349     1
   1334   1351     1
   1334   1352     1
   1334   1345     1
   1334   1346     1
   1335   1339     1
   1335   1340     1
   1335   1342     1
   1335   1343     1
   1335   1360     1
   1335   1361     1
   1336   1338     1
   1336   1341     1
   1336   1359     1
   1336   1348     1
   1336   1349     1
   1337   1338     1
   1337   1341     1
   1337   1359     1
   1337   1348     1
   1337   1349     1
   1338   1342     1
   1338   1343     1
   1338   1357     1
   1338   1358     1
   1339   1341     1
   1339   1356     1
   1339   1351     1
   1339   1352     1
   1340   1341     1
   1340   1356     1
   1340   1351     1
   1340   1352     1
   1341   1354     1
   1341   1355     1
   1342   1353     1
   1342   1345     1
   1342   1346     1
   1343   1353     1
   1343   1345     1
   1343   1346     1
   1345   1362     1
   1345   1354     1
   1345   1355     1
   1346   1362     1
   1346   1354     1
   1346   1355     1
   1348   2851     1
   1348   1360     1
   1348   1361     1
   1349   2851     1
   1349   1360     1
   1349   1361     1
   1351   2820     1
   1351   1357     1
   1351   1358     1
   1352   2820     1
   1352   1357     1
   1352   1358     1
   1356   2791     1
   1356   2792     1
   1357   2790     1
   1358   2790     1
   1359   2822     1
   1359   2823     1
   1360   2821     1
   1361   2821     1
   1363   1377     1
   1363   1378     1
   1363   1380     1
   1363   1381     1
   1363   1374     1
   1363   1375     1
   1364   1368     1
   1364   1369     1
   1364   1371     1
   1364   1372     1
   1364   1389     1
   1364   1390     1
   1365   1367     1
   1365   1370     1
   1365   1388     1
   1365   1377     1
   1365   1378     1
   1366   1367     1
   1366   1370     1
   1366   1388     1
   1366   1377     1
   1366   1378     1
   1367   1371     1
   1367   1372     1
   1367   1386     1
   1367   1387     1
   1368   1370     1
   1368   1385     1
   1368   1380     1
   1368   1381     1
   1369   1370     1
   1369   1385     1
   1369   1380     1
   1369   1381     1
   1370   1383     1
   1370   1384     1
   1371   1382     1
   1371   1374     1
   1371   1375     1
   1372   1382     1
   1372   1374     1
   1372   1375     1
   1374   1391     1
   1374   1383     1
   1374   1384     1
   1375   1391     1
   1375   1383     1
   1375   1384     1
   1377   2913     1
   1377   1389     1
   1377   1390     1
   1378   2913     1
   1378   1389     1
   1378   1390     1
   1380   2882     1
   1380   1386     1
   1380   1387     1
   1381   2882     1
   1381   1386     1
   1381   1387     1
   1385   2853     1
   1385   2854     1
   1386   2852     1
   1387   2852     1
   1388   2884     1
   1388   2885     1
   1389   2883     1
   1390   2883     1
   1392   1406     1
   1392   1407     1
   1392   1409     1
   1392   1410     1
   1392   1403     1
   1392   1404     1
   1393   1397     1
   1393   1398     1
   1393   1400     1
   1393   1401     1
   1393   1418     1
   1393   1419     1
   1394   1396     1
   1394   1399     1
   1394   1417     1
   1394   1406     1
   1394   1407     1
   1395   1396     1
   1395   1399     1
   1395   1417     1
   1395   1406     1
   1395   1407     1
   1396   1400     1
   1396   1401     1
   1396   1415     1
   1396   1416     1
   1397   1399     1
   1397   1414     1
   1397   1409     1
   1397   1410     1
   1398   1399     1
   1398   1414     1
   1398   1409     1
   1398   1410     1
   1399   1412     1
   1399   1413     1
   1400   1411     1
   1400   1403     1
   1400   1404     1
   1401   1411     1
   1401   1403     1
   1401   1404     1
   1403   1420     1
   1403   1412     1
   1403   1413     1
   1404   1420     1
   1404   1412     1
   1404   1413     1
   1406   2975     1
   1406   1418     1
   1406   1419     1
   1407   2975     1
   1407   1418     1
   1407   1419     1
   1409   2944     1
   1409   1415     1
   1409   1416     1
   1410   2944     1
   1410   1415     1
   1410   1416     1
   1414   2915     1
   1414   2916     1
   1415   2914     1
   1416   2914     1
   1417   2946     1
   1417   2947     1
   1418   2945     1
   1419   2945     1
   1421   1435     1
   1421   1436     1
   1421   1438     1
   1421   1439     1
   1421   1432     1
   1421   1433     1
   1422   1426     1
   1422   1427     1
   1422   1429     1
   1422   1430     1
   1422   1447     1
   1422   1448     1
   1423   1425     1
   1423   1428     1
   1423   1446     1
   1423   1435     1
   1423   1436     1
   1424   1425     1
   1424   1428     1
   1424   1446     1
   1424   1435     1
   1424   1436     1
   1425   1429     1
   1425   1430     1
   1425   1444     1
   1425   1445     1
   1426   1428     1
   1426   1443     1
   1426   1438     1
   1426   1439     1
   1427   1428     1
   1427   1443     1
   1427   1438     1
   1427   1439     1
   1428   1441     1
   1428   1442     1
   1429   1440     1
   1429   1432     1
   1429   1433     1
   1430   1440     1
   1430   1432     1
   1430   1433     1
   1432   1449     1
   1432   1441     1
   1432   1442     1
   1433   1449     1
   1433   1441     1
   1433   1442     1
   1435   3037     1
   1435   1447     1
   1435   1448     1
   1436   3037     1
   1436   1447     1
   1436   1448     1
   1438   3006     1
   1438   1444     1
   1438   1445     1
   1439   3006     1
   1439   1444     1
   1439   1445     1
   1443   2977     1
   1443   2978     1
   1444   2976     1
   1445   2976     1
   1446   3008     1
   1446   3009     1
   1447   3007     1
   1448   3007     1
   1450   1464     1
   1450   1465     1
   1450   1467     1
   1450   1468     1
   1450   1461     1
   1450   1462     1
   1451   1455     1
   1451   1456     1
   1451   1458     1
   1451   1459     1
   1451   1476     1
   1451   1477     1
   1452   1454     1
   1452   1457     1
   1452   1475     1
   1452   1464     1
   1452   1465     1
   1453   1454     1
   1453   1457     1
   1453   1475     1
   1453   1464     1
   1453   1465     1
   1454   1458     1
   1454   1459     1
   1454   1473     1
   1454   1474     1
   1455   1457     1
   1455   1472     1
   1455   1467     1
   1455   1468     1
   1456   1457     1
   1456   1472     1
   1456   1467     1
   1456   1468     1
   1457   1470     1
   1457   1471     1
   1458   1469     1
   1458   1461     1
   1458   1462     1
   1459   1469     1
   1459   1461     1
   1459   1462     1
   1461   1478     1
   1461   1470     1
   1461   1471     1
   1462   1478     1
   1462   1470     1
   1462   1471     1
   1464   3099     1
   1464   1476     1
   1464   1477     1
   1465   3099     1
   1465   1476     1
   1465   1477     1
   1467   3068     1
   1467   1473     1
   1467   1474     1
   1468   3068     1
   1468   1473     1
   1468   1474     1
   1472   3039     1
   1472   3040     1
   1473   3038     1
   1474   3038     1
   1475   3070     1
   1475   3071     1
   1476   3069     1
   1477   3069     1
   1479   1493     1
   1479   1494     1
   1479   1496     1
   1479   1497     1
   1479   1490     1
   1479   1491     1
   1480   1484     1
   1480   1485     1
   1480   1487     1
   1480   1488     1
   1480   1505     1
   1480   1506     1
   1481   1483     1
   1481   1486     1
   1481   1504     1
   1481   1493     1
   1481   1494     1
   1482   1483     1
   1482   1486     1
   1482   1504     1
   1482   1493     1
   1482   1494     1
   1483   1487     1
   1483   1488     1
   1483   1502     1
   1483   1503     1
   1484   1486     1
   1484   1501     1
   1484   1496     1
   1484   1497     1
   1485   1486     1
   1485   1501     1
   1485   1496     1
   1485   1497     1
   1486   1499     1
   1486   1500     1
   1487   1498     1
   1487   1490     1
   1487   1491     1
   1488   1498     1
   1488   1490     1
   1488   1491     1
   1490   1507     1
   1490   1499     1
   1490   1500     1
   1491   1507     1
   1491   1499     1
   1491   1500     1
   1493   3161     1
   1493   1505     1
   1493   1506     1
   1494   3161     1
   1494   1505     1
   1494   1506     1
   1496   3130     1
   1496   1502     1
   1496   1503     1
   1497   3130     1
   1497   1502     1
   1497   1503     1
   1501   3101     1
   1501   3102     1
   1502   3100     1
   1503   3100     1
   1504   3132     1
   1504   3133     1
   1505   3131     1
   1506   3131     1
   1508   1522     1
   1508   1523     1
   1508   1525     1
   1508   1526     1
   1508   1519     1
   1508   1520     1
   1509   1513     1
   1509   1514     1
   1509   1516     1
   1509   1517     1
   1509   1534     1
   1509   1535     1
   1510   1512     1
   1510   1515     1
   1510   1533     1
   1510   1522     1
   1510   1523     1
   1511   1512     1
   1511   1515     1
   1511   1533     1
   1511   1522     1
   1511   1523     1
   1512   1516     1
   1512   1517     1
   1512   1531     1
   1512   1532     1
   1513   1515     1
   1513   1530     1
   1513   1525     1
   1513   1526     1
   1514   1515     1
   1514   1530     1
   1514   1525     1
   1514   1526     1
   1515   1528     1
   1515   1529     1
   1516   1527     1
   1516   1519     1
   1516   1520     1
   1517   1527     1
   1517   1519     1
   1517   1520     1
   1519   1536     1
   1519   1528     1
   1519   1529     1
   1520   1536     1
   1520   1528     1
   1520   1529     1
   1522   3223     1
   1522   1534     1
   1522   1535     1
   1523   3223     1
   1523   1534     1
   1523   1535     1
   1525   3192     1
   1525   1531     1
   1525   1532     1
   1526   3192     1
   1526   1531     1
   1526   1532     1
   1530   3163     1
   1530   3164     1
   1531   3162     1
   1532   3162     1
   1533   3194     1
   1533   3195     1
   1534   3193     1
   1535   3193     1
   1537   1551     1
   1537   1552     1
   1537   1554     1
   1537   1555     1
   1537   1548     1
   1537   1549     1
   1538   1542     1
   1538   1543     1
   1538   1545     1
   1538   1546     1
   1538   1563     1
   1538   1564     1
   1539   1541     1
   1539   1544     1
   1539   1562     1
   1539   1551     1
   1539   1552     1
   1540   1541     1
   1540   1544     1
   1540   1562     1
   1540   1551     1
   1540   1552     1
   1541   1545     1
   1541   1546     1
   1541   1560     1
   1541   1561     1
   1542   1544     1
   1542   1559     1
   1542   1554     1
   1542   1555     1
   1543   1544     1
   1543   1559     1
   1543   1554     1
   1543   1555     1
   1544   1557     1
   1544   1558     1
   1545   1556     1
   1545   1548     1
   1545   1549     1
   1546   1556     1
   1546   1548     1
   1546   1549     1
   1548   1565     1
   1548   1557     1
   1548   1558     1
   1549   1565     1
   1549   1557     1
   1549   1558     1
   1551   3285     1
   1551   1563     1
   1551   1564     1
   1552   3285     1
   1552   1563     1
   1552   1564     1
   1554   3254     1
   1554   1560     1
   1554   1561     1
   1555   3254     1
   1555   1560     1
   1555   1561     1
   1559   3225     1
   1559   3226     1
   1560   3224     1
   1561   3224     1
   1562   3256     1
   1562   3257     1
   1563   3255     1
   1564   3255     1
   1566   1580     1
   1566   1581     1
   1566   1583     1
   1566   1584     1
   1566   1577     1
   1566   1578     1
   1567   1571     1
   1567   1572     1
   1567   1574     1
   1567   1575     1
   1567   1592     1
   1567   1593     1
   1568   1570     1
   1568   1573     1
   1568   1591     1
   1568   1580     1
   1568   1581     1
   1569   1570     1
   1569   1573     1
   1569   1591     1
   1569   1580     1
   1569   1581     1
   1570   1574     1
   1570   1575     1
   1570   1589     1
   1570   1590     1
   1571   1573     1
   1571   1588     1
   1571   1583     1
   1571   1584     1
   1572   1573     1
   1572   1588     1
   1572   1583     1
   1572   1584     1
   1573   1586     1
   1573   1587     1
   1574   1585     1
   1574   1577     1
   1574   1578     1
   1575   1585     1
   1575   1577     1
   1575   1578     1
   1577   1594     1
   1577   1586     1
   1577   1587     1
   1578   1594     1
   1578   1586     1
   1578   1587     1
   1580   3347     1
   1580   1592     1
   1580   1593     1
   1581   3347     1
   1581   1592     1
   1581   1593     1
   1583   3316     1
   1583   1589     1
   1583   1590     1
   1584   3316     1
   1584   1589     1
   1584   1590     1
   1588   3287     1
   1588   3288     1
   1589   3286     1
   1590   3286     1
   1591   3318     1
   1591   3319     1
   1592   3317     1
   1593   3317     1
   1595   1609     1
   1595   1610     1
   1595   1612     1
   1595   1613     1
   1595   1606     1
   1595   1607     1
   1596   1600     1
   1596   1601     1
   1596   1603     1
   1596   1604     1
   1596   1621     1
   1596   1622     1
   1597   1599     1
   1597   1602     1
   1597   1620     1
   1597   1609     1
   1597   1610     1
   1598   1599     1
   1598   1602     1
   1598   1620     1
   1598   1609     1
   1598   1610     1
   1599   1603     1
   1599   1604     1
   1599   1618     1
   1599   1619     1
   1600   1602     1
   1600   1617     1
   1600   1612     1
   1600   1613     1
   1601   1602     1
   1601   1617     1
   1601   1612     1
   1601   1613     1
   1602   1615     1
   1602   1616     1
   1603   1614     1
   1603   1606     1
   1603   1607     1
   1604   1614     1
   1604   1606     1
   1604   1607     1
   1606   1623     1
   1606   1615     1
   1606   1616     1
   1607   1623     1
   1607   1615     1
   1607   1616     1
   1609   3409     1
   1609   1621     1
   1609   1622     1
   1610   3409     1
   1610   1621     1
   1610   1622     1
   1612   3378     1
   1612   1618     1
   1612   1619     1
   1613   3378     1
   1613   1618     1
   1613   1619     1
   1617   3349     1
   1617   3350     1
   1618   3348     1
   1619   3348     1
   1620   3380     1
   1620   3381     1
   1621   3379     1
   1622   3379     1
   1624   1638     1
   1624   1639     1
   1624   1641     1
   1624   1642     1
   1624   1635     1
   1624   1636     1
   1625   1629     1
   1625   1630     1
   1625   1632     1
   1625   1633     1
   1625   1650     1
   1625   1651     1
   1626   1628     1
   1626   1631     1
   1626   1649     1
   1626   1638     1
   1626   1639     1
   1627   1628     1
   1627   1631     1
   1627   1649     1
   1627   1638     1
   1627   1639     1
   1628   1632     1
   1628   1633     1
   1628   1647     1
   1628   1648     1
   1629   1631     1
   1629   1646     1
   1629   1641     1
   1629   1642     1
   1630   1631     1
   1630   1646     1
   1630   1641     1
   1630   1642     1
   1631   1644     1
   1631   1645     1
   1632   1643     1
   1632   1635     1
   1632   1636     1
   1633   1643     1
   1633   1635     1
   1633   1636     1
   1635   1652     1
   1635   1644     1
   1635   1645     1
   1636   1652     1
   1636   1644     1
   1636   1645     1
   1638   3471     1
   1638   1650     1
   1638   1651     1
   1639   3471     1
   1639   1650     1
   1639   1651     1
   1641   3440     1
   1641   1647     1
   1641   1648     1
   1642   3440     1
   1642   1647     1
   1642   1648     1
   1646   3411     1
   1646   3412     1
   1647   3410     1
   1648   3410     1
   1649   3442     1
   1649   3443     1
   1650   3441     1
   1651   3441     1
   1653   1667     1
   1653   1668     1
   1653   1670     1
   1653   1671     1
   1653   1664     1
   1653   1665     1
   1654   1658     1
   1654   1659     1
   1654   1661     1
   1654   1662     1
   1654   1679     1
   1654   1680     1
   1655   1657     1
   1655   1660     1
   1655   1678     1
   1655   1667     1
   1655   1668     1
   1656   1657     1
   1656   1660     1
   1656   1678     1
   1656   1667     1
   1656   1668     1
   1657   1661     1
   1657   1662     1
   1657   1676     1
   1657   1677     1
   1658   1660     1
   1658   1675     1
   1658   1670     1
   1658   1671     1
   1659   1660     1
   1659   1675     1
   1659   1670     1
   1659   1671     1
   1660   1673     1
   1660   1674     1
   1661   1672     1
   1661   1664     1
   1661   1665     1
   1662   1672     1
   1662   1664     1
   1662   1665     1
   1664   1681     1
   1664   1673     1
   1664   1674     1
   1665   1681     1
   1665   1673     1
   1665   1674     1
   1667   3533     1
   1667   1679     1
   1667   1680     1
   1668   3533     1
   1668   1679     1
   1668   1680     1
   1670   3502     1
   1670   1676     1
   1670   1677     1
   1671   3502     1
   1671   1676     1
   1671   1677     1
   1675   3473     1
   1675   3474     1
   1676   3472     1
   1677   3472     1
   1678   3504     1
   1678   3505     1
   1679   3503     1
   1680   3503     1
   1682   1696     1
   1682   1697     1
   1682   1699     1
   1682   1700     1
   1682   1693     1
   1682   1694     1
   1683   1687     1
   1683   1688     1
   1683   1690     1
   1683   1691     1
   1683   1708     1
   1683   1709     1
   1684   1686     1
   1684   1689     1
   1684   1707     1
   1684   1696     1
   1684   1697     1
   1685   1686     1
   1685   1689     1
   1685   1707     1
   1685   1696     1
   1685   1697     1
   1686   1690     1
   1686   1691     1
   1686   1705     1
   1686   1706     1
   1687   1689     1
   1687   1704     1
   1687   1699     1
   1687   1700     1
   1688   1689     1
   1688   1704     1
   1688   1699     1
   1688   1700     1
   1689   1702     1
   1689   1703     1
   1690   1701     1
   1690   1693     1
   1690   1694     1
   1691   1701     1
   1691   1693     1
   1691   1694     1
   1693   1710     1
   1693   1702     1
   1693   1703     1
   1694   1710     1
   1694   1702     1
   1694   1703     1
   1696   3595     1
   1696   1708     1
   1696   1709     1
   1697   3595     1
   1697   1708     1
   1697   1709     1
   1699   3564     1
   1699   1705     1
   1699   1706     1
   1700   3564     1
   1700   1705     1
   1700   1706     1
   1704   3535     1
   1704   3536     1
   1705   3534     1
   1706   3534     1
   1707   3566     1
   1707   3567     1
   1708   3565     1
   1709   3565     1
   1711   1725     1
   1711   1726     1
   1711   1728     1
   1711   1729     1
   1711   1722     1
   1711   1723     1
   1712   1716     1
   1712   1717     1
   1712   1719     1
   1712   1720     1
   1712   1737     1
   1712   1738     1
   1713   1715     1
   1713   1718     1
   1713   1736     1
   1713   1725     1
   1713   1726     1
   1714   1715     1
   1714   1718     1
   1714   1736     1
   1714   1725     1
   1714   1726     1
   1715   1719     1
   1715   1720     1
   1715   1734     1
   1715   1735     1
   1716   1718     1
   1716   1733     1
   1716   1728     1
   1716   1729     1
   1717   1718     1
   1717   1733     1
   1717   1728     1
   1717   1729     1
   1718   1731     1
   1718   1732     1
   1719   1730     1
   1719   1722     1
   1719   1723     1
   1720   1730     1
   1720   1722     1
   1720   1723     1
   1722   1739     1
   1722   1731     1
   1722   1732     1
   1723   1739     1
   1723   1731     1
   1723   1732     1
   1725   3657     1
   1725   1737     1
   1725   1738     1
   1726   3657     1
   1726   1737     1
   1726   1738     1
   1728   3626     1
   1728   1734     1
   1728   1735     1
   1729   3626     1
   1729   1734     1
   1729   1735     1
   1733   3597     1
   1733   3598     1
   1734   3596     1
   1735   3596     1
   1736   3628     1
   1736   3629     1
   1737   3627     1
   1738   3627     1
   1740   1754     1
   1740   1755     1
   1740   1757     1
   1740   1758     1
   1740   1751     1
   1740   1752     1
   1741   1745     1
   1741   1746     1
   1741   1748     1
   1741   1749     1
   1741   1766     1
   1741   1767     1
   1742   1744     1
   1742   1747     1
   1742   1765     1
   1742   1754     1
   1742   1755     1
   1743   1744     1
   1743   1747     1
   1743   1765     1
   1743   1754     1
   1743   1755     1
   1744   1748     1
   1744   1749     1
   1744   1763     1
   1744   1764     1
   1745   1747     1
   1745   1762     1
   1745   1757     1
   1745   1758     1
   1746   1747     1
   1746   1762     1
   1746   1757     1
   1746   1758     1
   1747   1760     1
   1747   1761     1
   1748   1759     1
   1748   1751     1
   1748   1752     1
   1749   1759     1
   1749   1751     1
   1749   1752     1
   1751   1768     1
   1751   1760     1
   1751   1761     1
   1752   1768     1
   1752   1760     1
   1752   1761     1
   1754   3719     1
   1754   1766     1
   1754   1767     1
   1755   3719     1
   1755   1766     1
   1755   1767     1
   1757   3688     1
   1757   1763     1
   1757   1764     1
   1758   3688     1
   1758   1763     1
   1758   1764     1
   1762   3659     1
   1762   3660     1
   1763   3658     1
   1764   3658     1
   1765   3690     1
   1765   3691     1
   1766   3689     1
   1767   3689     1
   1769   1783     1
   1769   1784     1
   1769   1786     1
   1769   1787     1
   1769   1780     1
   1769   1781     1
   1770   1774     1
   1770   1775     1
   1770   1777     1
   1770   1778     1
   1770   1795     1
   1770   1796     1
   1771   1773     1
   1771   1776     1
   1771   1794     1
   1771   1783     1
   1771   1784     1
   1772   1773     1
   1772   1776     1
   1772   1794     1
   1772   1783     1
   1772   1784     1
   1773   1777     1
   1773   1778     1
   1773   1792     1
   1773   1793     1
   1774   1776     1
   1774   1791     1
   1774   1786     1
   1774   1787     1
   1775   1776     1
   1775   1791     1
   1775   1786     1
   1775   1787     1
   1776   1789     1
   1776   1790     1
   1777   1788     1
   1777   1780     1
   1777   1781     1
   1778   1788     1
   1778   1780     1
   1778   1781     1
   1780   1797     1
   1780   1789     1
   1780   1790     1
   1781   1797     1
   1781   1789     1
   1781   1790     1
   1783   3781     1
   1783   1795     1
   1783   1796     1
   1784   3781     1
   1784   1795     1
   1784   1796     1
   1786   3750     1
   1786   1792     1
   1786   1793     1
   1787   3750     1
   1787   1792     1
   1787   1793     1
   1791   3721     1
   1791   3722     1
   1792   3720     1
   1793   3720     1
   1794   3752     1
   1794   3753     1
   1795   3751     1
   1796   3751     1
   1798   1805     1
   1798   1806     1
   1799   1804     1
   1799   1802     1
   1799   1803     1
   1800   1804     1
   1800   1802     1
   1800   1803     1
   1802   1828     1
   1802   1807     1
   1802   1805     1
   1802   1806     1
   1803   1828     1
   1803   1807     1
   1803   1805     1
   1803   1806     1
   1804   1809     1
   1804   1810     1
   1804   1819     1
   1804   1820     1
   1805   1808     1
   1805   1818     1
   1806   1808     1
   1806   1818     1
   1807   1812     1
   1807   1813     1
   1807   1822     1
   1807   1823     1
   1808   1819     1
   1808   1820     1
   1809   1818     1
   1809   1814     1
   1809   1812     1
   1809   1813     1
   1810   1818     1
   1810   1814     1
   1810   1812     1
   1810   1813     1
   1811   1817     1
   1812   1815     1
   1812   1816     1
   1813   1815     1
   1813   1816     1
   1815   1817     1
   1819   1824     1
   1819   1822     1
   1819   1823     1
   1820   1824     1
   1820   1822     1
   1820   1823     1
   1821   1827     1
   1822   1825     1
   1822   1826     1
   1823   1825     1
   1823   1826     1
   1825   1827     1
   1829   1836     1
   1829   1837     1
   1830   1835     1
   1830   1833     1
   1830   1834     1
   1831   1835     1
   1831   1833     1
   1831   1834     1
   1833   1838     1
   1833   1836     1
   1833   1837     1
   1833   1859     1
   1834   1838     1
   1834   1836     1
   1834   1837     1
   1834   1859     1
   1835   1840     1
   1835   1841     1
   1835   1850     1
   1835   1851     1
   1836   1839     1
   1836   1849     1
   1837   1839     1
   1837   1849     1
   1838   1843     1
   1838   1844     1
   1838   1853     1
   1838   1854     1
   1839   1850     1
   1839   1851     1
   1840   1845     1
   1840   1843     1
   1840   1844     1
   1840   1849     1
   1841   1845     1
   1841   1843     1
   1841   1844     1
   1841   1849     1
   1842   1848     1
   1843   1846     1
   1843   1847     1
   1844   1846     1
   1844   1847     1
   1846   1848     1
   1850   1855     1
   1850   1853     1
   1850   1854     1
   1851   1855     1
   1851   1853     1
   1851   1854     1
   1852   1858     1
   1853   1856     1
   1853   1857     1
   1854   1856     1
   1854   1857     1
   1856   1858     1
   1860   1867     1
   1860   1868     1
   1861   1866     1
   1861   1864     1
   1861   1865     1
   1862   1866     1
   1862   1864     1
   1862   1865     1
   1864   1890     1
   1864   1869     1
   1864   1867     1
   1864   1868     1
   1865   1890     1
   1865   1869     1
   1865   1867     1
   1865   1868     1
   1866   1871     1
   1866   1872     1
   1866   1881     1
   1866   1882     1
   1867   1870     1
   1867   1880     1
   1868   1870     1
   1868   1880     1
   1869   1874     1
   1869   1875     1
   1869   1884     1
   1869   1885     1
   1870   1881     1
   1870   1882     1
   1871   1880     1
   1871   1876     1
   1871   1874     1
   1871   1875     1
   1872   1880     1
   1872   1876     1
   1872   1874     1
   1872   1875     1
   1873   1879     1
   1874   1877     1
   1874   1878     1
   1875   1877     1
   1875   1878     1
   1877   1879     1
   1881   1886     1
   1881   1884     1
   1881   1885     1
   1882   1886     1
   1882   1884     1
   1882   1885     1
   1883   1889     1
   1884   1887     1
   1884   1888     1
   1885   1887     1
   1885   1888     1
   1887   1889     1
   1891   1898     1
   1891   1899     1
   1892   1897     1
   1892   1895     1
   1892   1896     1
   1893   1897     1
   1893   1895     1
   1893   1896     1
   1895   1900     1
   1895   1898     1
   1895   1899     1
   1895   1921     1
   1896   1900     1
   1896   1898     1
   1896   1899     1
   1896   1921     1
   1897   1902     1
   1897   1903     1
   1897   1912     1
   1897   1913     1
   1898   1901     1
   1898   1911     1
   1899   1901     1
   1899   1911     1
   1900   1905     1
   1900   1906     1
   1900   1915     1
   1900   1916     1
   1901   1912     1
   1901   1913     1
   1902   1907     1
   1902   1905     1
   1902   1906     1
   1902   1911     1
   1903   1907     1
   1903   1905     1
   1903   1906     1
   1903   1911     1
   1904   1910     1
   1905   1908     1
   1905   1909     1
   1906   1908     1
   1906   1909     1
   1908   1910     1
   1912   1917     1
   1912   1915     1
   1912   1916     1
   1913   1917     1
   1913   1915     1
   1913   1916     1
   1914   1920     1
   1915   1918     1
   1915   1919     1
   1916   1918     1
   1916   1919     1
   1918   1920     1
   1922   1929     1
   1922   1930     1
   1923   1928     1
   1923   1926     1
   1923   1927     1
   1924   1928     1
   1924   1926     1
   1924   1927     1
   1926   1952     1
   1926   1931     1
   1926   1929     1
   1926   1930     1
   1927   1952     1
   1927   1931     1
   1927   1929     1
   1927   1930     1
   1928   1933     1
   1928   1934     1
   1928   1943     1
   1928   1944     1
   1929   1932     1
   1929   1942     1
   1930   1932     1
   1930   1942     1
   1931   1936     1
   1931   1937     1
   1931   1946     1
   1931   1947     1
   1932   1943     1
   1932   1944     1
   1933   1942     1
   1933   1938     1
   1933   1936     1
   1933   1937     1
   1934   1942     1
   1934   1938     1
   1934   1936     1
   1934   1937     1
   1935   1941     1
   1936   1939     1
   1936   1940     1
   1937   1939     1
   1937   1940     1
   1939   1941     1
   1943   1948     1
   1943   1946     1
   1943   1947     1
   1944   1948     1
   1944   1946     1
   1944   1947     1
   1945   1951     1
   1946   1949     1
   1946   1950     1
   1947   1949     1
   1947   1950     1
   1949   1951     1
   1953   1960     1
   1953   1961     1
   1954   1959     1
   1954   1957     1
   1954   1958     1
   1955   1959     1
   1955   1957     1
   1955   1958     1
   1957   1962     1
   1957   1960     1
   1957   1961     1
   1957   1983     1
   1958   1962     1
   1958   1960     1
   1958   1961     1
   1958   1983     1
   1959   1964     1
   1959   1965     1
   1959   1974     1
   1959   1975     1
   1960   1963     1
   1960   1973     1
   1961   1963     1
   1961   1973     1
   1962   1967     1
   1962   1968     1
   1962   1977     1
   1962   1978     1
   1963   1974     1
   1963   1975     1
   1964   1969     1
   1964   1967     1
   1964   1968     1
   1964   1973     1
   1965   1969     1
   1965   1967     1
   1965   1968     1
   1965   1973     1
   1966   1972     1
   1967   1970     1
   1967   1971     1
   1968   1970     1
   1968   1971     1
   1970   1972     1
   1974   1979     1
   1974   1977     1
   1974   1978     1
   1975   1979     1
   1975   1977     1
   1975   1978     1
   1976   1982     1
   1977   1980     1
   1977   1981     1
   1978   1980     1
   1978   1981     1
   1980   1982     1
   1984   1991     1
   1984   1992     1
   1985   1990     1
   1985   1988     1
   1985   1989     1
   1986   1990     1
   1986   1988     1
   1986   1989     1
   1988   2014     1
   1988   1993     1
   1988   1991     1
   1988   1992     1
   1989   2014     1
   1989   1993     1
   1989   1991     1
   1989   1992     1
   1990   1995     1
   1990   1996     1
   1990   2005     1
   1990   2006     1
   1991   1994     1
   1991   2004     1
   1992   1994     1
   1992   2004     1
   1993   1998     1
   1993   1999     1
   1993   2008     1
   1993   2009     1
   1994   2005     1
   1994   2006     1
   1995   2004     1
   1995   2000     1
   1995   1998     1
   1995   1999     1
   1996   2004     1
   1996   2000     1
   1996   1998     1
   1996   1999     1
   1997   2003     1
   1998   2001     1
   1998   2002     1
   1999   2001     1
   1999   2002     1
   2001   2003     1
   2005   2010     1
   2005   2008     1
   2005   2009     1
   2006   2010     1
   2006   2008     1
   2006   2009     1
   2007   2013     1
   2008   2011     1
   2008   2012     1
   2009   2011     1
   2009   2012     1
   2011   2013     1
   2015   2022     1
   2015   2023     1
   2016   2021     1
   2016   2019     1
   2016   2020     1
   2017   2021     1
   2017   2019     1
   2017   2020     1
   2019   2024     1
   2019   2022     1
   2019   2023     1
   2019   2045     1
   2020   2024     1
   2020   2022     1
   2020   2023     1
   2020   2045     1
   2021   2026     1
   2021   2027     1
   2021   2036     1
   2021   2037     1
   2022   2025     1
   2022   2035     1
   2023   2025     1
   2023   2035     1
   2024   2029     1
   2024   2030     1
   2024   2039     1
   2024   2040     1
   2025   2036     1
   2025   2037     1
   2026   2031     1
   2026   2029     1
   2026   2030     1
   2026   2035     1
   2027   2031     1
   2027   2029     1
   2027   2030     1
   2027   2035     1
   2028   2034     1
   2029   2032     1
   2029   2033     1
   2030   2032     1
   2030   2033     1
   2032   2034     1
   2036   2041     1
   2036   2039     1
   2036   2040     1
   2037   2041     1
   2037   2039     1
   2037   2040     1
   2038   2044     1
   2039   2042     1
   2039   2043     1
   2040   2042     1
   2040   2043     1
   2042   2044     1
   2046   2053     1
   2046   2054     1
   2047   2052     1
   2047   2050     1
   2047   2051     1
   2048   2052     1
   2048   2050     1
   2048   2051     1
   2050   2076     1
   2050   2055     1
   2050   2053     1
   2050   2054     1
   2051   2076     1
   2051   2055     1
   2051   2053     1
   2051   2054     1
   2052   2057     1
   2052   2058     1
   2052   2067     1
   2052   2068     1
   2053   2056     1
   2053   2066     1
   2054   2056     1
   2054   2066     1
   2055   2060     1
   2055   2061     1
   2055   2070     1
   2055   2071     1
   2056   2067     1
   2056   2068     1
   2057   2066     1
   2057   2062     1
   2057   2060     1
   2057   2061     1
   2058   2066     1
   2058   2062     1
   2058   2060     1
   2058   2061     1
   2059   2065     1
   2060   2063     1
   2060   2064     1
   2061   2063     1
   2061   2064     1
   2063   2065     1
   2067   2072     1
   2067   2070     1
   2067   2071     1
   2068   2072     1
   2068   2070     1
   2068   2071     1
   2069   2075     1
   2070   2073     1
   2070   2074     1
   2071   2073     1
   2071   2074     1
   2073   2075     1
   2077   2084     1
   2077   2085     1
   2078   2083     1
   2078   2081     1
   2078   2082     1
   2079   2083     1
   2079   2081     1
   2079   2082     1
   2081   2086     1
   2081   2084     1
   2081   2085     1
   2081   2107     1
   2082   2086     1
   2082   2084     1
   2082   2085     1
   2082   2107     1
   2083   2088     1
   2083   2089     1
   2083   2098     1
   2083   2099     1
   2084   2087     1
   2084   2097     1
   2085   2087     1
   2085   2097     1
   2086   2091     1
   2086   2092     1
   2086   2101     1
   2086   2102     1
   2087   2098     1
   2087   2099     1
   2088   2093     1
   2088   2091     1
   2088   2092     1
   2088   2097     1
   2089   2093     1
   2089   2091     1
   2089   2092     1
   2089   2097     1
   2090   2096     1
   2091   2094     1
   2091   2095     1
   2092   2094     1
   2092   2095     1
   2094   2096     1
   2098   2103     1
   2098   2101     1
   2098   2102     1
   2099   2103     1
   2099   2101     1
   2099   2102     1
   2100   2106     1
   2101   2104     1
   2101   2105     1
   2102   2104     1
   2102   2105     1
   2104   2106     1
   2108   2115     1
   2108   2116     1
   2109   2114     1
   2109   2112     1
   2109   2113     1
   2110   2114     1
   2110   2112     1
   2110   2113     1
   2112   2138     1
   2112   2117     1
   2112   2115     1
   2112   2116     1
   2113   2138     1
   2113   2117     1
   2113   2115     1
   2113   2116     1
   2114   2119     1
   2114   2120     1
   2114   2129     1
   2114   2130     1
   2115   2118     1
   2115   2128     1
   2116   2118     1
   2116   2128     1
   2117   2122     1
   2117   2123     1
   2117   2132     1
   2117   2133     1
   2118   2129     1
   2118   2130     1
   2119   2128     1
   2119   2124     1
   2119   2122     1
   2119   2123     1
   2120   2128     1
   2120   2124     1
   2120   2122     1
   2120   2123     1
   2121   2127     1
   2122   2125     1
   2122   2126     1
   2123   2125     1
   2123   2126     1
   2125   2127     1
   2129   2134     1
   2129   2132     1
   2129   2133     1
   2130   2134     1
   2130   2132     1
   2130   2133     1
   2131   2137     1
   2132   2135     1
   2132   2136     1
   2133   2135     1
   2133   2136     1
   2135   2137     1
   2139   2146     1
   2139   2147     1
   2140   2145     1
   2140   2143     1
   2140   2144     1
   2141   2145     1
   2141   2143     1
   2141   2144     1
   2143   2148     1
   2143   2146     1
   2143   2147     1
   2143   2169     1
   2144   2148     1
   2144   2146     1
   2144   2147     1
   2144   2169     1
   2145   2150     1
   2145   2151     1
   2145   2160     1
   2145   2161     1
   2146   2149     1
   2146   2159     1
   2147   2149     1
   2147   2159     1
   2148   2153     1
   2148   2154     1
   2148   2163     1
   2148   2164     1
   2149   2160     1
   2149   2161     1
   2150   2155     1
   2150   2153     1
   2150   2154     1
   2150   2159     1
   2151   2155     1
   2151   2153     1
   2151   2154     1
   2151   2159     1
   2152   2158     1
   2153   2156     1
   2153   2157     1
   2154   2156     1
   2154   2157     1
   2156   2158     1
   2160   2165     1
   2160   2163     1
   2160   2164     1
   2161   2165     1
   2161   2163     1
   2161   2164     1
   2162   2168     1
   2163   2166     1
   2163   2167     1
   2164   2166     1
   2164   2167     1
   2166   2168     1
   2170   2177     1
   2170   2178     1
   2171   2176     1
   2171   2174     1
   2171   2175     1
   2172   2176     1
   2172   2174     1
   2172   2175     1
   2174   2200     1
   2174   2179     1
   2174   2177     1
   2174   2178     1
   2175   2200     1
   2175   2179     1
   2175   2177     1
   2175   2178     1
   2176   2181     1
   2176   2182     1
   2176   2191     1
   2176   2192     1
   2177   2180     1
   2177   2190     1
   2178   2180     1
   2178   2190     1
   2179   2184     1
   2179   2185     1
   2179   2194     1
   2179   2195     1
   2180   2191     1
   2180   2192     1
   2181   2190     1
   2181   2186     1
   2181   2184     1
   2181   2185     1
   2182   2190     1
   2182   2186     1
   2182   2184     1
   2182   2185     1
   2183   2189     1
   2184   2187     1
   2184   2188     1
   2185   2187     1
   2185   2188     1
   2187   2189     1
   2191   2196     1
   2191   2194     1
   2191   2195     1
   2192   2196     1
   2192   2194     1
   2192   2195     1
   2193   2199     1
   2194   2197     1
   2194   2198     1
   2195   2197     1
   2195   2198     1
   2197   2199     1
   2201   2208     1
   2201   2209     1
   2202   2207     1
   2202   2205     1
   2202   2206     1
   2203   2207     1
   2203   2205     1
   2203   2206     1
   2205   2210     1
   2205   2208     1
   2205   2209     1
   2205   2231     1
   2206   2210     1
   2206   2208     1
   2206   2209     1
   2206   2231     1
   2207   2212     1
   2207   2213     1
   2207   2222     1
   2207   2223     1
   2208   2211     1
   2208   2221     1
   2209   2211     1
   2209   2221     1
   2210   2215     1
   2210   2216     1
   2210   2225     1
   2210   2226     1
   2211   2222     1
   2211   2223     1
   2212   2217     1
   2212   2215     1
   2212   2216     1
   2212   2221     1
   2213   2217     1
   2213   2215     1
   2213   2216     1
   2213   2221     1
   2214   2220     1
   2215   2218     1
   2215   2219     1
   2216   2218     1
   2216   2219     1
   2218   2220     1
   2222   2227     1
   2222   2225     1
   2222   2226     1
   2223   2227     1
   2223   2225     1
   2223   2226     1
   2224   2230     1
   2225   2228     1
   2225   2229     1
   2226   2228     1
   2226   2229     1
   2228   2230     1
   2232   2239     1
   2232   2240     1
   2233   2238     1
   2233   2236     1
   2233   2237     1
   2234   2238     1
   2234   2236     1
   2234   2237     1
   2236   2262     1
   2236   2241     1
   2236   2239     1
   2236   2240     1
   2237   2262     1
   2237   2241     1
   2237   2239     1
   2237   2240     1
   2238   2243     1
   2238   2244     1
   2238   2253     1
   2238   2254     1
   2239   2242     1
   2239   2252     1
   2240   2242     1
   2240   2252     1
   2241   2246     1
   2241   2247     1
   2241   2256     1
   2241   2257     1
   2242   2253     1
   2242   2254     1
   2243   2252     1
   2243   2248     1
   2243   2246     1
   2243   2247     1
   2244   2252     1
   2244   2248     1
   2244   2246     1
   2244   2247     1
   2245   2251     1
   2246   2249     1
   2246   2250     1
   2247   2249     1
   2247   2250     1
   2249   2251     1
   2253   2258     1
   2253   2256     1
   2253   2257     1
   2254   2258     1
   2254   2256     1
   2254   2257     1
   2255   2261     1
   2256   2259     1
   2256   2260     1
   2257   2259     1
   2257   2260     1
   2259   2261     1
   2263   2270     1
   2263   2271     1
   2264   2269     1
   2264   2267     1
   2264   2268     1
   2265   2269     1
   2265   2267     1
   2265   2268     1
   2267   2272     1
   2267   2270     1
   2267   2271     1
   2267   2293     1
   2268   2272     1
   2268   2270     1
   2268   2271     1
   2268   2293     1
   2269   2274     1
   2269   2275     1
   2269   2284     1
   2269   2285     1
   2270   2273     1
   2270   2283     1
   2271   2273     1
   2271   2283     1
   2272   2277     1
   2272   2278     1
   2272   2287     1
   2272   2288     1
   2273   2284     1
   2273   2285     1
   2274   2279     1
   2274   2277     1
   2274   2278     1
   2274   2283     1
   2275   2279     1
   2275   2277     1
   2275   2278     1
   2275   2283     1
   2276   2282     1
   2277   2280     1
   2277   2281     1
   2278   2280     1
   2278   2281     1
   2280   2282     1
   2284   2289     1
   2284   2287     1
   2284   2288     1
   2285   2289     1
   2285   2287     1
   2285   2288     1
   2286   2292     1
   2287   2290     1
   2287   2291     1
   2288   2290     1
   2288   2291     1
   2290   2292     1
   2294   2301     1
   2294   2302     1
   2295   2300     1
   2295   2298     1
   2295   2299     1
   2296   2300     1
   2296   2298     1
   2296   2299     1
   2298   2324     1
   2298   2303     1
   2298   2301     1
   2298   2302     1
   2299   2324     1
   2299   2303     1
   2299   2301     1
   2299   2302     1
   2300   2305     1
   2300   2306     1
   2300   2315     1
   2300   2316     1
   2301   2304     1
   2301   2314     1
   2302   2304     1
   2302   2314     1
   2303   2308     1
   2303   2309     1
   2303   2318     1
   2303   2319     1
   2304   2315     1
   2304   2316     1
   2305   2314     1
   2305   2310     1
   2305   2308     1
   2305   2309     1
   2306   2314     1
   2306   2310     1
   2306   2308     1
   2306   2309     1
   2307   2313     1
   2308   2311     1
   2308   2312     1
   2309   2311     1
   2309   2312     1
   2311   2313     1
   2315   2320     1
   2315   2318     1
   2315   2319     1
   2316   2320     1
   2316   2318     1
   2316   2319     1
   2317   2323     1
   2318   2321     1
   2318   2322     1
   2319   2321     1
   2319   2322     1
   2321   2323     1
   2325   2332     1
   2325   2333     1
   2326   2331     1
   2326   2329     1
   2326   2330     1
   2327   2331     1
   2327   2329     1
   2327   2330     1
   2329   2334     1
   2329   2332     1
   2329   2333     1
   2329   2355     1
   2330   2334     1
   2330   2332     1
   2330   2333     1
   2330   2355     1
   2331   2336     1
   2331   2337     1
   2331   2346     1
   2331   2347     1
   2332   2335     1
   2332   2345     1
   2333   2335     1
   2333   2345     1
   2334   2339     1
   2334   2340     1
   2334   2349     1
   2334   2350     1
   2335   2346     1
   2335   2347     1
   2336   2341     1
   2336   2339     1
   2336   2340     1
   2336   2345     1
   2337   2341     1
   2337   2339     1
   2337   2340     1
   2337   2345     1
   2338   2344     1
   2339   2342     1
   2339   2343     1
   2340   2342     1
   2340   2343     1
   2342   2344     1
   2346   2351     1
   2346   2349     1
   2346   2350     1
   2347   2351     1
   2347   2349     1
   2347   2350     1
   2348   2354     1
   2349   2352     1
   2349   2353     1
   2350   2352     1
   2350   2353     1
   2352   2354     1
   2356   2363     1
   2356   2364     1
   2357   2362     1
   2357   2360     1
   2357   2361     1
   2358   2362     1
   2358   2360     1
   2358   2361     1
   2360   2386     1
   2360   2365     1
   2360   2363     1
   2360   2364     1
   2361   2386     1
   2361   2365     1
   2361   2363     1
   2361   2364     1
   2362   2367     1
   2362   2368     1
   2362   2377     1
   2362   2378     1
   2363   2366     1
   2363   2376     1
   2364   2366     1
   2364   2376     1
   2365   2370     1
   2365   2371     1
   2365   2380     1
   2365   2381     1
   2366   2377     1
   2366   2378     1
   2367   2376     1
   2367   2372     1
   2367   2370     1
   2367   2371     1
   2368   2376     1
   2368   2372     1
   2368   2370     1
   2368   2371     1
   2369   2375     1
   2370   2373     1
   2370   2374     1
   2371   2373     1
   2371   2374     1
   2373   2375     1
   2377   2382     1
   2377   2380     1
   2377   2381     1
   2378   2382     1
   2378   2380     1
   2378   2381     1
   2379   2385     1
   2380   2383     1
   2380   2384     1
   2381   2383     1
   2381   2384     1
   2383   2385     1
   2387   2394     1
   2387   2395     1
   2388   2393     1
   2388   2391     1
   2388   2392     1
   2389   2393     1
   2389   2391     1
   2389   2392     1
   2391   2396     1
   2391   2394     1
   2391   2395     1
   2391   2417     1
   2392   2396     1
   2392   2394     1
   2392   2395     1
   2392   2417     1
   2393   2398     1
   2393   2399     1
   2393   2408     1
   2393   2409     1
   2394   2397     1
   2394   2407     1
   2395   2397     1
   2395   2407     1
   2396   2401     1
   2396   2402     1
   2396   2411     1
   2396   2412     1
   2397   2408     1
   2397   2409     1
   2398   2403     1
   2398   2401     1
   2398   2402     1
   2398   2407     1
   2399   2403     1
   2399   2401     1
   2399   2402     1
   2399   2407     1
   2400   2406     1
   2401   2404     1
   2401   2405     1
   2402   2404     1
   2402   2405     1
   2404   2406     1
   2408   2413     1
   2408   2411     1
   2408   2412     1
   2409   2413     1
   2409   2411     1
   2409   2412     1
   2410   2416     1
   2411   2414     1
   2411   2415     1
   2412   2414     1
   2412   2415     1
   2414   2416     1
   2418   2425     1
   2418   2426     1
   2419   2424     1
   2419   2422     1
   2419   2423     1
   2420   2424     1
   2420   2422     1
   2420   2423     1
   2422   2448     1
   2422   2427     1
   2422   2425     1
   2422   2426     1
   2423   2448     1
   2423   2427     1
   2423   2425     1
   2423   2426     1
   2424   2429     1
   2424   2430     1
   2424   2439     1
   2424   2440     1
   2425   2428     1
   2425   2438     1
   2426   2428     1
   2426   2438     1
   2427   2432     1
   2427   2433     1
   2427   2442     1
   2427   2443     1
   2428   2439     1
   2428   2440     1
   2429   2438     1
   2429   2434     1
   2429   2432     1
   2429   2433     1
   2430   2438     1
   2430   2434     1
   2430   2432     1
   2430   2433     1
   2431   2437     1
   2432   2435     1
   2432   2436     1
   2433   2435     1
   2433   2436     1
   2435   2437     1
   2439   2444     1
   2439   2442     1
   2439   2443     1
   2440   2444     1
   2440   2442     1
   2440   2443     1
   2441   2447     1
   2442   2445     1
   2442   2446     1
   2443   2445     1
   2443   2446     1
   2445   2447     1
   2449   2456     1
   2449   2457     1
   2450   2455     1
   2450   2453     1
   2450   2454     1
   2451   2455     1
   2451   2453     1
   2451   2454     1
   2453   2458     1
   2453   2456     1
   2453   2457     1
   2453   2479     1
   2454   2458     1
   2454   2456     1
   2454   2457     1
   2454   2479     1
   2455   2460     1
   2455   2461     1
   2455   2470     1
   2455   2471     1
   2456   2459     1
   2456   2469     1
   2457   2459     1
   2457   2469     1
   2458   2463     1
   2458   2464     1
   2458   2473     1
   2458   2474     1
   2459   2470     1
   2459   2471     1
   2460   2465     1
   2460   2463     1
   2460   2464     1
   2460   2469     1
   2461   2465     1
   2461   2463     1
   2461   2464     1
   2461   2469     1
   2462   2468     1
   2463   2466     1
   2463   2467     1
   2464   2466     1
   2464   2467     1
   2466   2468     1
   2470   2475     1
   2470   2473     1
   2470   2474     1
   2471   2475     1
   2471   2473     1
   2471   2474     1
   2472   2478     1
   2473   2476     1
   2473   2477     1
   2474   2476     1
   2474   2477     1
   2476   2478     1
   2480   2487     1
   2480   2488     1
   2481   2486     1
   2481   2484     1
   2481   2485     1
   2482   2486     1
   2482   2484     1
   2482   2485     1
   2484   2510     1
   2484   2489     1
   2484   2487     1
   2484   2488     1
   2485   2510     1
   2485   2489     1
   2485   2487     1
   2485   2488     1
   2486   2491     1
   2486   2492     1
   2486   2501     1
   2486   2502     1
   2487   2490     1
   2487   2500     1
   2488   2490     1
   2488   2500     1
   2489   2494     1
   2489   2495     1
   2489   2504     1
   2489   2505     1
   2490   2501     1
   2490   2502     1
   2491   2500     1
   2491   2496     1
   2491   2494     1
   2491   2495     1
   2492   2500     1
   2492   2496     1
   2492   2494     1
   2492   2495     1
   2493   2499     1
   2494   2497     1
   2494   2498     1
   2495   2497     1
   2495   2498     1
   2497   2499     1
   2501   2506     1
   2501   2504     1
   2501   2505     1
   2502   2506     1
   2502   2504     1
   2502   2505     1
   2503   2509     1
   2504   2507     1
   2504   2508     1
   2505   2507     1
   2505   2508     1
   2507   2509     1
   2511   2518     1
   2511   2519     1
   2512   2517     1
   2512   2515     1
   2512   2516     1
   2513   2517     1
   2513   2515     1
   2513   2516     1
   2515   2520     1
   2515   2518     1
   2515   2519     1
   2515   2541     1
   2516   2520     1
   2516   2518     1
   2516   2519     1
   2516   2541     1
   2517   2522     1
   2517   2523     1
   2517   2532     1
   2517   2533     1
   2518   2521     1
   2518   2531     1
   2519   2521     1
   2519   2531     1
   2520   2525     1
   2520   2526     1
   2520   2535     1
   2520   2536     1
   2521   2532     1
   2521   2533     1
   2522   2527     1
   2522   2525     1
   2522   2526     1
   2522   2531     1
   2523   2527     1
   2523   2525     1
   2523   2526     1
   2523   2531     1
   2524   2530     1
   2525   2528     1
   2525   2529     1
   2526   2528     1
   2526   2529     1
   2528   2530     1
   2532   2537     1
   2532   2535     1
   2532   2536     1
   2533   2537     1
   2533   2535     1
   2533   2536     1
   2534   2540     1
   2535   2538     1
   2535   2539     1
   2536   2538     1
   2536   2539     1
   2538   2540     1
   2542   2549     1
   2542   2550     1
   2543   2548     1
   2543   2546     1
   2543   2547     1
   2544   2548     1
   2544   2546     1
   2544   2547     1
   2546   2572     1
   2546   2551     1
   2546   2549     1
   2546   2550     1
   2547   2572     1
   2547   2551     1
   2547   2549     1
   2547   2550     1
   2548   2553     1
   2548   2554     1
   2548   2563     1
   2548   2564     1
   2549   2552     1
   2549   2562     1
   2550   2552     1
   2550   2562     1
   2551   2556     1
   2551   2557     1
   2551   2566     1
   2551   2567     1
   2552   2563     1
   2552   2564     1
   2553   2562     1
   2553   2558     1
   2553   2556     1
   2553   2557     1
   2554   2562     1
   2554   2558     1
   2554   2556     1
   2554   2557     1
   2555   2561     1
   2556   2559     1
   2556   2560     1
   2557   2559     1
   2557   2560     1
   2559   2561     1
   2563   2568     1
   2563   2566     1
   2563   2567     1
   2564   2568     1
   2564   2566     1
   2564   2567     1
   2565   2571     1
   2566   2569     1
   2566   2570     1
   2567   2569     1
   2567   2570     1
   2569   2571     1
   2573   2580     1
   2573   2581     1
   2574   2579     1
   2574   2577     1
   2574   2578     1
   2575   2579     1
   2575   2577     1
   2575   2578     1
   2577   2582     1
   2577   2580     1
   2577   2581     1
   2577   2603     1
   2578   2582     1
   2578   2580     1
   2578   2581     1
   2578   2603     1
   2579   2584     1
   2579   2585     1
   2579   2594     1
   2579   2595     1
   2580   2583     1
   2580   2593     1
   2581   2583     1
   2581   2593     1
   2582   2587     1
   2582   2588     1
   2582   2597     1
   2582   2598     1
   2583   2594     1
   2583   2595     1
   2584   2589     1
   2584   2587     1
   2584   2588     1
   2584   2593     1
   2585   2589     1
   2585   2587     1
   2585   2588     1
   2585   2593     1
   2586   2592     1
   2587   2590     1
   2587   2591     1
   2588   2590     1
   2588   2591     1
   2590   2592     1
   2594   2599     1
   2594   2597     1
   2594   2598     1
   2595   2599     1
   2595   2597     1
   2595   2598     1
   2596   2602     1
   2597   2600     1
   2597   2601     1
   2598   2600     1
   2598   2601     1
   2600   2602     1
   2604   2611     1
   2604   2612     1
   2605   2610     1
   2605   2608     1
   2605   2609     1
   2606   2610     1
   2606   2608     1
   2606   2609     1
   2608   2634     1
   2608   2613     1
   2608   2611     1
   2608   2612     1
   2609   2634     1
   2609   2613     1
   2609   2611     1
   2609   2612     1
   2610   2615     1
   2610   2616     1
   2610   2625     1
   2610   2626     1
   2611   2614     1
   2611   2624     1
   2612   2614     1
   2612   2624     1
   2613   2618     1
   2613   2619     1
   2613   2628     1
   2613   2629     1
   2614   2625     1
   2614   2626     1
   2615   2624     1
   2615   2620     1
   2615   2618     1
   2615   2619     1
   2616   2624     1
   2616   2620     1
   2616   2618     1
   2616   2619     1
   2617   2623     1
   2618   2621     1
   2618   2622     1
   2619   2621     1
   2619   2622     1
   2621   2623     1
   2625   2630     1
   2625   2628     1
   2625   2629     1
   2626   2630     1
   2626   2628     1
   2626   2629     1
   2627   2633     1
   2628   2631     1
   2628   2632     1
   2629   2631     1
   2629   2632     1
   2631   2633     1
   2635   2642     1
   2635   2643     1
   2636   2641     1
   2636   2639     1
   2636   2640     1
   2637   2641     1
   2637   2639     1
   2637   2640     1
   2639   2644     1
   2639   2642     1
   2639   2643     1
   2639   2665     1
   2640   2644     1
   2640   2642     1
   2640   2643     1
   2640   2665     1
   2641   2646     1
   2641   2647     1
   2641   2656     1
   2641   2657     1
   2642   2645     1
   2642   2655     1
   2643   2645     1
   2643   2655     1
   2644   2649     1
   2644   2650     1
   2644   2659     1
   2644   2660     1
   2645   2656     1
   2645   2657     1
   2646   2651     1
   2646   2649     1
   2646   2650     1
   2646   2655     1
   2647   2651     1
   2647   2649     1
   2647   2650     1
   2647   2655     1
   2648   2654     1
   2649   2652     1
   2649   2653     1
   2650   2652     1
   2650   2653     1
   2652   2654     1
   2656   2661     1
   2656   2659     1
   2656   2660     1
   2657   2661     1
   2657   2659     1
   2657   2660     1
   2658   2664     1
   2659   2662     1
   2659   2663     1
   2660   2662     1
   2660   2663     1
   2662   2664     1
   2666   2673     1
   2666   2674     1
   2667   2672     1
   2667   2670     1
   2667   2671     1
   2668   2672     1
   2668   2670     1
   2668   2671     1
   2670   2696     1
   2670   2675     1
   2670   2673     1
   2670   2674     1
   2671   2696     1
   2671   2675     1
   2671   2673     1
   2671   2674     1
   2672   2677     1
   2672   2678     1
   2672   2687     1
   2672   2688     1
   2673   2676     1
   2673   2686     1
   2674   2676     1
   2674   2686     1
   2675   2680     1
   2675   2681     1
   2675   2690     1
   2675   2691     1
   2676   2687     1
   2676   2688     1
   2677   2686     1
   2677   2682     1
   2677   2680     1
   2677   2681     1
   2678   2686     1
   2678   2682     1
   2678   2680     1
   2678   2681     1
   2679   2685     1
   2680   2683     1
   2680   2684     1
   2681   2683     1
   2681   2684     1
   2683   2685     1
   2687   2692     1
   2687   2690     1
   2687   2691     1
   2688   2692     1
   2688   2690     1
   2688   2691     1
   2689   2695     1
   2690   2693     1
   2690   2694     1
   2691   2693     1
   2691   2694     1
   2693   2695     1
   2697   2704     1
   2697   2705     1
   2698   2703     1
   2698   2701     1
   2698   2702     1
   2699   2703     1
   2699   2701     1
   2699   2702     1
   2701   2706     1
   2701   2704     1
   2701   2705     1
   2701   2727     1
   2702   2706     1
   2702   2704     1
   2702   2705     1
   2702   2727     1
   2703   2708     1
   2703   2709     1
   2703   2718     1
   2703   2719     1
   2704   2707     1
   2704   2717     1
   2705   2707     1
   2705   2717     1
   2706   2711     1
   2706   2712     1
   2706   2721     1
   2706   2722     1
   2707   2718     1
   2707   2719     1
   2708   2713     1
   2708   2711     1
   2708   2712     1
   2708   2717     1
   2709   2713     1
   2709   2711     1
   2709   2712     1
   2709   2717     1
   2710   2716     1
   2711   2714     1
   2711   2715     1
   2712   2714     1
   2712   2715     1
   2714   2716     1
   2718   2723     1
   2718   2721     1
   2718   2722     1
   2719   2723     1
   2719   2721     1
   2719   2722     1
   2720   2726     1
   2721   2724     1
   2721   2725     1
   2722   2724     1
   2722   2725     1
   2724   2726     1
   2728   2735     1
   2728   2736     1
   2729   2734     1
   2729   2732     1
   2729   2733     1
   2730   2734     1
   2730   2732     1
   2730   2733     1
   2732   2758     1
   2732   2737     1
   2732   2735     1
   2732   2736     1
   2733   2758     1
   2733   2737     1
   2733   2735     1
   2733   2736     1
   2734   2739     1
   2734   2740     1
   2734   2749     1
   2734   2750     1
   2735   2738     1
   2735   2748     1
   2736   2738     1
   2736   2748     1
   2737   2742     1
   2737   2743     1
   2737   2752     1
   2737   2753     1
   2738   2749     1
   2738   2750     1
   2739   2748     1
   2739   2744     1
   2739   2742     1
   2739   2743     1
   2740   2748     1
   2740   2744     1
   2740   2742     1
   2740   2743     1
   2741   2747     1
   2742   2745     1
   2742   2746     1
   2743   2745     1
   2743   2746     1
   2745   2747     1
   2749   2754     1
   2749   2752     1
   2749   2753     1
   2750   2754     1
   2750   2752     1
   2750   2753     1
   2751   2757     1
   2752   2755     1
   2752   2756     1
   2753   2755     1
   2753   2756     1
   2755   2757     1
   2759   2766     1
   2759   2767     1
   2760   2765     1
   2760   2763     1
   2760   2764     1
   2761   2765     1
   2761   2763     1
   2761   2764     1
   2763   2768     1
   2763   2766     1
   2763   2767     1
   2763   2789     1
   2764   2768     1
   2764   2766     1
   2764   2767     1
   2764   2789     1
   2765   2770     1
   2765   2771     1
   2765   2780     1
   2765   2781     1
   2766   2769     1
   2766   2779     1
   2767   2769     1
   2767   2779     1
   2768   2773     1
   2768   2774     1
   2768   2783     1
   2768   2784     1
   2769   2780     1
   2769   2781     1
   2770   2775     1
   2770   2773     1
   2770   2774     1
   2770   2779     1
   2771   2775     1
   2771   2773     1
   2771   2774     1
   2771   2779     1
   2772   2778     1
   2773   2776     1
   2773   2777     1
   2774   2776     1
   2774   2777     1
   2776   2778     1
   2780   2785     1
   2780   2783     1
   2780   2784     1
   2781   2785     1
   2781   2783     1
   2781   2784     1
   2782   2788     1
   2783   2786     1
   2783   2787     1
   2784   2786     1
   2784   2787     1
   2786   2788     1
   2790   2797     1
   2790   2798     1
   2791   2796     1
   2791   2794     1
   2791   2795     1
   2792   2796     1
   2792   2794     1
   2792   2795     1
   2794   2820     1
   2794   2799     1
   2794   2797     1
   2794   2798     1
   2795   2820     1
   2795   2799     1
   2795   2797     1
   2795   2798     1
   2796   2801     1
   2796   2802     1
   2796   2811     1
   2796   2812     1
   2797   2800     1
   2797   2810     1
   2798   2800     1
   2798   2810     1
   2799   2804     1
   2799   2805     1
   2799   2814     1
   2799   2815     1
   2800   2811     1
   2800   2812     1
   2801   2810     1
   2801   2806     1
   2801   2804     1
   2801   2805     1
   2802   2810     1
   2802   2806     1
   2802   2804     1
   2802   2805     1
   2803   2809     1
   2804   2807     1
   2804   2808     1
   2805   2807     1
   2805   2808     1
   2807   2809     1
   2811   2816     1
   2811   2814     1
   2811   2815     1
   2812   2816     1
   2812   2814     1
   2812   2815     1
   2813   2819     1
   2814   2817     1
   2814   2818     1
   2815   2817     1
   2815   2818     1
   2817   2819     1
   2821   2828     1
   2821   2829     1
   2822   2827     1
   2822   2825     1
   2822   2826     1
   2823   2827     1
   2823   2825     1
   2823   2826     1
   2825   2830     1
   2825   2828     1
   2825   2829     1
   2825   2851     1
   2826   2830     1
   2826   2828     1
   2826   2829     1
   2826   2851     1
   2827   2832     1
   2827   2833     1
   2827   2842     1
   2827   2843     1
   2828   2831     1
   2828   2841     1
   2829   2831     1
   2829   2841     1
   2830   2835     1
   2830   2836     1
   2830   2845     1
   2830   2846     1
   2831   2842     1
   2831   2843     1
   2832   2837     1
   2832   2835     1
   2832   2836     1
   2832   2841     1
   2833   2837     1
   2833   2835     1
   2833   2836     1
   2833   2841     1
   2834   2840     1
   2835   2838     1
   2835   2839     1
   2836   2838     1
   2836   2839     1
   2838   2840     1
   2842   2847     1
   2842   2845     1
   2842   2846     1
   2843   2847     1
   2843   2845     1
   2843   2846     1
   2844   2850     1
   2845   2848     1
   2845   2849     1
   2846   2848     1
   2846   2849     1
   2848   2850     1
   2852   2859     1
   2852   2860     1
   2853   2858     1
   2853   2856     1
   2853   2857     1
   2854   2858     1
   2854   2856     1
   2854   2857     1
   2856   2882     1
   2856   2861     1
   2856   2859     1
   2856   2860     1
   2857   2882     1
   2857   2861     1
   2857   2859     1
   2857   2860     1
   2858   2863     1
   2858   2864     1
   2858   2873     1
   2858   2874     1
   2859   2862     1
   2859   2872     1
   2860   2862     1
   2860   2872     1
   2861   2866     1
   2861   2867     1
   2861   2876     1
   2861   2877     1
   2862   2873     1
   2862   2874     1
   2863   2872     1
   2863   2868     1
   2863   2866     1
   2863   2867     1
   2864   2872     1
   2864   2868     1
   2864   2866     1
   2864   2867     1
   2865   2871     1
   2866   2869     1
   2866   2870     1
   2867   2869     1
   2867   2870     1
   2869   2871     1
   2873   2878     1
   2873   2876     1
   2873   2877     1
   2874   2878     1
   2874   2876     1
   2874   2877     1
   2875   2881     1
   2876   2879     1
   2876   2880     1
   2877   2879     1
   2877   2880     1
   2879   2881     1
   2883   2890     1
   2883   2891     1
   2884   2889     1
   2884   2887     1
   2884   2888     1
   2885   2889     1
   2885   2887     1
   2885   2888     1
   2887   2892     1
   2887   2890     1
   2887   2891     1
   2887   2913     1
   2888   2892     1
   2888   2890     1
   2888   2891     1
   2888   2913     1
   2889   2894     1
   2889   2895     1
   2889   2904     1
   2889   2905     1
   2890   2893     1
   2890   2903     1
   2891   2893     1
   2891   2903     1
   2892   2897     1
   2892   2898     1
   2892   2907     1
   2892   2908     1
   2893   2904     1
   2893   2905     1
   2894   2899     1
   2894   2897     1
   2894   2898     1
   2894   2903     1
   2895   2899     1
   2895   2897     1
   2895   2898     1
   2895   2903     1
   2896   2902     1
   2897   2900     1
   2897   2901     1
   2898   2900     1
   2898   2901     1
   2900   2902     1
   2904   2909     1
   2904   2907     1
   2904   2908     1
   2905   2909     1
   2905   2907     1
   2905   2908     1
   2906   2912     1
   2907   2910     1
   2907   2911     1
   2908   2910     1
   2908   2911     1
   2910   2912     1
   2914   2921     1
   2914   2922     1
   2915   2920     1
   2915   2918     1
   2915   2919     1
   2916   2920     1
   2916   2918     1
   2916   2919     1
   2918   2944     1
   2918   2923     1
   2918   2921     1
   2918   2922     1
   2919   2944     1
   2919   2923     1
   2919   2921     1
   2919   2922     1
   2920   2925     1
   2920   2926     1
   2920   2935     1
   2920   2936     1
   2921   2924     1
   2921   2934     1
   2922   2924     1
   2922   2934     1
   2923   2928     1
   2923   2929     1
   2923   2938     1
   2923   2939     1
   2924   2935     1
   2924   2936     1
   2925   2934     1
   2925   2930     1
   2925   2928     1
   2925   2929     1
   2926   2934     1
   2926   2930     1
   2926   2928     1
   2926   2929     1
   2927   2933     1
   2928   2931     1
   2928   2932     1
   2929   2931     1
   2929   2932     1
   2931   2933     1
   2935   2940     1
   2935   2938     1
   2935   2939     1
   2936   2940     1
   2936   2938     1
   2936   2939     1
   2937   2943     1
   2938   2941     1
   2938   2942     1
   2939   2941     1
   2939   2942     1
   2941   2943     1
   2945   2952     1
   2945   2953     1
   2946   2951     1
   2946   2949     1
   2946   2950     1
   2947   2951     1
   2947   2949     1
   2947   2950     1
   2949   2954     1
   2949   2952     1
   2949   2953     1
   2949   2975     1
   2950   2954     1
   2950   2952     1
   2950   2953     1
   2950   2975     1
   2951   2956     1
   2951   2957     1
   2951   2966     1
   2951   2967     1
   2952   2955     1
   2952   2965     1
   2953   2955     1
   2953   2965     1
   2954   2959     1
   2954   2960     1
   2954   2969     1
   2954   2970     1
   2955   2966     1
   2955   2967     1
   2956   2961     1
   2956   2959     1
   2956   2960     1
   2956   2965     1
   2957   2961     1
   2957   2959     1
   2957   2960     1
   2957   2965     1
   2958   2964     1
   2959   2962     1
   2959   2963     1
   2960   2962     1
   2960   2963     1
   2962   2964     1
   2966   2971     1
   2966   2969     1
   2966   2970     1
   2967   2971     1
   2967   2969     1
   2967   2970     1
   2968   2974     1
   2969   2972     1
   2969   2973     1
   2970   2972     1
   2970   2973     1
   2972   2974     1
   2976   2983     1
   2976   2984     1
   2977   2982     1
   2977   2980     1
   2977   2981     1
   2978   2982     1
   2978   2980     1
   2978   2981     1
   2980   3006     1
   2980   2985     1
   2980   2983     1
   2980   2984     1
   2981   3006     1
   2981   2985     1
   2981   2983     1
   2981   2984     1
   2982   2987     1
   2982   2988     1
   2982   2997     1
   2982   2998     1
   2983   2986     1
   2983   2996     1
   2984   2986     1
   2984   2996     1
   2985   2990     1
   2985   2991     1
   2985   3000     1
   2985   3001     1
   2986   2997     1
   2986   2998     1
   2987   2996     1
   2987   2992     1
   2987   2990     1
   2987   2991     1
   2988   2996     1
   2988   2992     1
   2988   2990     1
   2988   2991     1
   2989   2995     1
   2990   2993     1
   2990   2994     1
   2991   2993     1
   2991   2994     1
   2993   2995     1
   2997   3002     1
   2997   3000     1
   2997   3001     1
   2998   3002     1
   2998   3000     1
   2998   3001     1
   2999   3005     1
   3000   3003     1
   3000   3004     1
   3001   3003     1
   3001   3004     1
   3003   3005     1
   3007   3014     1
   3007   3015     1
   3008   3013     1
   3008   3011     1
   3008   3012     1
   3009   3013     1
   3009   3011     1
   3009   3012     1
   3011   3016     1
   3011   3014     1
   3011   3015     1
   3011   3037     1
   3012   3016     1
   3012   3014     1
   3012   3015     1
   3012   3037     1
   3013   3018     1
   3013   3019     1
   3013   3028     1
   3013   3029     1
   3014   3017     1
   3014   3027     1
   3015   3017     1
   3015   3027     1
   3016   3021     1
   3016   3022     1
   3016   3031     1
   3016   3032     1
   3017   3028     1
   3017   3029     1
   3018   3023     1
   3018   3021     1
   3018   3022     1
   3018   3027     1
   3019   3023     1
   3019   3021     1
   3019   3022     1
   3019   3027     1
   3020   3026     1
   3021   3024     1
   3021   3025     1
   3022   3024     1
   3022   3025     1
   3024   3026     1
   3028   3033     1
   3028   3031     1
   3028   3032     1
   3029   3033     1
   3029   3031     1
   3029   3032     1
   3030   3036     1
   3031   3034     1
   3031   3035     1
   3032   3034     1
   3032   3035     1
   3034   3036     1
   3038   3045     1
   3038   3046     1
   3039   3044     1
   3039   3042     1
   3039   3043     1
   3040   3044     1
   3040   3042     1
   3040   3043     1
   3042   3068     1
   3042   3047     1
   3042   3045     1
   3042   3046     1
   3043   3068     1
   3043   3047     1
   3043   3045     1
   3043   3046     1
   3044   3049     1
   3044   3050     1
   3044   3059     1
   3044   3060     1
   3045   3048     1
   3045   3058     1
   3046   3048     1
   3046   3058     1
   3047   3052     1
   3047   3053     1
   3047   3062     1
   3047   3063     1
   3048   3059     1
   3048   3060     1
   3049   3058     1
   3049   3054     1
   3049   3052     1
   3049   3053     1
   3050   3058     1
   3050   3054     1
   3050   3052     1
   3050   3053     1
   3051   3057     1
   3052   3055     1
   3052   3056     1
   3053   3055     1
   3053   3056     1
   3055   3057     1
   3059   3064     1
   3059   3062     1
   3059   3063     1
   3060   3064     1
   3060   3062     1
   3060   3063     1
   3061   3067     1
   3062   3065     1
   3062   3066     1
   3063   3065     1
   3063   3066     1
   3065   3067     1
   3069   3076     1
   3069   3077     1
   3070   3075     1
   3070   3073     1
   3070   3074     1
   3071   3075     1
   3071   3073     1
   3071   3074     1
   3073   3078     1
   3073   3076     1
   3073   3077     1
   3073   3099     1
   3074   3078     1
   3074   3076     1
   3074   3077     1
   3074   3099     1
   3075   3080     1
   3075   3081     1
   3075   3090     1
   3075   3091     1
   3076   3079     1
   3076   3089     1
   3077   3079     1
   3077   3089     1
   3078   3083     1
   3078   3084     1
   3078   3093     1
   3078   3094     1
   3079   3090     1
   3079   3091     1
   3080   3085     1
   3080   3083     1
   3080   3084     1
   3080   3089     1
   3081   3085     1
   3081   3083     1
   3081   3084     1
   3081   3089     1
   3082   3088     1
   3083   3086     1
   3083   3087     1
   3084   3086     1
   3084   3087     1
   3086   3088     1
   3090   3095     1
   3090   3093     1
   3090   3094     1
   3091   3095     1
   3091   3093     1
   3091   3094     1
   3092   3098     1
   3093   3096     1
   3093   3097     1
   3094   3096     1
   3094   3097     1
   3096   3098     1
   3100   3107     1
   3100   3108     1
   3101   3106     1
   3101   3104     1
   3101   3105     1
   3102   3106     1
   3102   3104     1
   3102   3105     1
   3104   3130     1
   3104   3109     1
   3104   3107     1
   3104   3108     1
   3105   3130     1
   3105   3109     1
   3105   3107     1
   3105   3108     1
   3106   3111     1
   3106   3112     1
   3106   3121     1
   3106   3122     1
   3107   3110     1
   3107   3120     1
   3108   3110     1
   3108   3120     1
   3109   3114     1
   3109   3115     1
   3109   3124     1
   3109   3125     1
   3110   3121     1
   3110   3122     1
   3111   3120     1
   3111   3116     1
   3111   3114     1
   3111   3115     1
   3112   3120     1
   3112   3116     1
   3112   3114     1
   3112   3115     1
   3113   3119     1
   3114   3117     1
   3114   3118     1
   3115   3117     1
   3115   3118     1
   3117   3119     1
   3121   3126     1
   3121   3124     1
   3121   3125     1
   3122   3126     1
   3122   3124     1
   3122   3125     1
   3123   3129     1
   3124   3127     1
   3124   3128     1
   3125   3127     1
   3125   3128     1
   3127   3129     1
   3131   3138     1
   3131   3139     1
   3132   3137     1
   3132   3135     1
   3132   3136     1
   3133   3137     1
   3133   3135     1
   3133   3136     1
   3135   3140     1
   3135   3138     1
   3135   3139     1
   3135   3161     1
   3136   3140     1
   3136   3138     1
   3136   3139     1
   3136   3161     1
   3137   3142     1
   3137   3143     1
   3137   3152     1
   3137   3153     1
   3138   3141     1
   3138   3151     1
   3139   3141     1
   3139   3151     1
   3140   3145     1
   3140   3146     1
   3140   3155     1
   3140   3156     1
   3141   3152     1
   3141   3153     1
   3142   3147     1
   3142   3145     1
   3142   3146     1
   3142   3151     1
   3143   3147     1
   3143   3145     1
   3143   3146     1
   3143   3151     1
   3144   3150     1
   3145   3148     1
   3145   3149     1
   3146   3148     1
   3146   3149     1
   3148   3150     1
   3152   3157     1
   3152   3155     1
   3152   3156     1
   3153   3157     1
   3153   3155     1
   3153   3156     1
   3154   3160     1
   3155   3158     1
   3155   3159     1
   3156   3158     1
   3156   3159     1
   3158   3160     1
   3162   3169     1
   3162   3170     1
   3163   3168     1
   3163   3166     1
   3163   3167     1
   3164   3168     1
   3164   3166     1
   3164   3167     1
   3166   3192     1
   3166   3171     1
   3166   3169     1
   3166   3170     1
   3167   3192     1
   3167   3171     1
   3167   3169     1
   3167   3170     1
   3168   3173     1
   3168   3174     1
   3168   3183     1
   3168   3184     1
   3169   3172     1
   3169   3182     1
   3170   3172     1
   3170   3182     1
   3171   3176     1
   3171   3177     1
   3171   3186     1
   3171   3187     1
   3172   3183     1
   3172   3184     1
   3173   3182     1
   3173   3178     1
   3173   3176     1
   3173   3177     1
   3174   3182     1
   3174   3178     1
   3174   3176     1
   3174   3177     1
   3175   3181     1
   3176   3179     1
   3176   3180     1
   3177   3179     1
   3177   3180     1
   3179   3181     1
   3183   3188     1
   3183   3186     1
   3183   3187     1
   3184   3188     1
   3184   3186     1
   3184   3187     1
   3185   3191     1
   3186   3189     1
   3186   3190     1
   3187   3189     1
   3187   3190     1
   3189   3191     1
   3193   3200     1
   3193   3201     1
   3194   3199     1
   3194   3197     1
   3194   3198     1
   3195   3199     1
   3195   3197     1
   3195   3198     1
   3197   3202     1
   3197   3200     1
   3197   3201     1
   3197   3223     1
   3198   3202     1
   3198   3200     1
   3198   3201     1
   3198   3223     1
   3199   3204     1
   3199   3205     1
   3199   3214     1
   3199   3215     1
   3200   3203     1
   3200   3213     1
   3201   3203     1
   3201   3213     1
   3202   3207     1
   3202   3208     1
   3202   3217     1
   3202   3218     1
   3203   3214     1
   3203   3215     1
   3204   3209     1
   3204   3207     1
   3204   3208     1
   3204   3213     1
   3205   3209     1
   3205   3207     1
   3205   3208     1
   3205   3213     1
   3206   3212     1
   3207   3210     1
   3207   3211     1
   3208   3210     1
   3208   3211     1
   3210   3212     1
   3214   3219     1
   3214   3217     1
   3214   3218     1
   3215   3219     1
   3215   3217     1
   3215   3218     1
   3216   3222     1
   3217   3220     1
   3217   3221     1
   3218   3220     1
   3218   3221     1
   3220   3222     1
   3224   3231     1
   3224   3232     1
   3225   3230     1
   3225   3228     1
   3225   3229     1
   3226   3230     1
   3226   3228     1
   3226   3229     1
   3228   3254     1
   3228   3233     1
   3228   3231     1
   3228   3232     1
   3229   3254     1
   3229   3233     1
   3229   3231     1
   3229   3232     1
   3230   3235     1
   3230   3236     1
   3230   3245     1
   3230   3246     1
   3231   3234     1
   3231   3244     1
   3232   3234     1
   3232   3244     1
   3233   3238     1
   3233   3239     1
   3233   3248     1
   3233   3249     1
   3234   3245     1
   3234   3246     1
   3235   3244     1
   3235   3240     1
   3235   3238     1
   3235   3239     1
   3236   3244     1
   3236   3240     1
   3236   3238     1
   3236   3239     1
   3237   3243     1
   3238   3241     1
   3238   3242     1
   3239   3241     1
   3239   3242     1
   3241   3243     1
   3245   3250     1
   3245   3248     1
   3245   3249     1
   3246   3250     1
   3246   3248     1
   3246   3249     1
   3247   3253     1
   3248   3251     1
   3248   3252     1
   3249   3251     1
   3249   3252     1
   3251   3253     1
   3255   3262     1
   3255   3263     1
   3256   3261     1
   3256   3259     1
   3256   3260     1
   3257   3261     1
   3257   3259     1
   3257   3260     1
   3259   3264     1
   3259   3262     1
   3259   3263     1
   3259   3285     1
   3260   3264     1
   3260   3262     1
   3260   3263     1
   3260   3285     1
   3261   3266     1
   3261   3267     1
   3261   3276     1
   3261   3277     1
   3262   3265     1
   3262   3275     1
   3263   3265     1
   3263   3275     1
   3264   3269     1
   3264   3270     1
   3264   3279     1
   3264   3280     1
   3265   3276     1
   3265   3277     1
   3266   3271     1
   3266   3269     1
   3266   3270     1
   3266   3275     1
   3267   3271     1
   3267   3269     1
   3267   3270     1
   3267   3275     1
   3268   3274     1
   3269   3272     1
   3269   3273     1
   3270   3272     1
   3270   3273     1
   3272   3274     1
   3276   3281     1
   3276   3279     1
   3276   3280     1
   3277   3281     1
   3277   3279     1
   3277   3280     1
   3278   3284     1
   3279   3282     1
   3279   3283     1
   3280   3282     1
   3280   3283     1
   3282   3284     1
   3286   3293     1
   3286   3294     1
   3287   3292     1
   3287   3290     1
   3287   3291     1
   3288   3292     1
   3288   3290     1
   3288   3291     1
   3290   3316     1
   3290   3295     1
   3290   3293     1
   3290   3294     1
   3291   3316     1
   3291   3295     1
   3291   3293     1
   3291   3294     1
   3292   3297     1
   3292   3298     1
   3292   3307     1
   3292   3308     1
   3293   3296     1
   3293   3306     1
   3294   3296     1
   3294   3306     1
   3295   3300     1
   3295   3301     1
   3295   3310     1
   3295   3311     1
   3296   3307     1
   3296   3308     1
   3297   3306     1
   3297   3302     1
   3297   3300     1
   3297   3301     1
   3298   3306     1
   3298   3302     1
   3298   3300     1
   3298   3301     1
   3299   3305     1
   3300   3303     1
   3300   3304     1
   3301   3303     1
   3301   3304     1
   3303   3305     1
   3307   3312     1
   3307   3310     1
   3307   3311     1
   3308   3312     1
   3308   3310     1
   3308   3311     1
   3309   3315     1
   3310   3313     1
   3310   3314     1
   3311   3313     1
   3311   3314     1
   3313   3315     1
   3317   3324     1
   3317   3325     1
   3318   3323     1
   3318   3321     1
   3318   3322     1
   3319   3323     1
   3319   3321     1
   3319   3322     1
   3321   3326     1
   3321   3324     1
   3321   3325     1
   3321   3347     1
   3322   3326     1
   3322   3324     1
   3322   3325     1
   3322   3347     1
   3323   3328     1
   3323   3329     1
   3323   3338     1
   3323   3339     1
   3324   3327     1
   3324   3337     1
   3325   3327     1
   3325   3337     1
   3326   3331     1
   3326   3332     1
   3326   3341     1
   3326   3342     1
   3327   3338     1
   3327   3339     1
   3328   3333     1
   3328   3331     1
   3328   3332     1
   3328   3337     1
   3329   3333     1
   3329   3331     1
   3329   3332     1
   3329   3337     1
   3330   3336     1
   3331   3334     1
   3331   3335     1
   3332   3334     1
   3332   3335     1
   3334   3336     1
   3338   3343     1
   3338   3341     1
   3338   3342     1
   3339   3343     1
   3339   3341     1
   3339   3342     1
   3340   3346     1
   3341   3344     1
   3341   3345     1
   3342   3344     1
   3342   3345     1
   3344   3346     1
   3348   3355     1
   3348   3356     1
   3349   3354     1
   3349   3352     1
   3349   3353     1
   3350   3354     1
   3350   3352     1
   3350   3353     1
   3352   3378     1
   3352   3357     1
   3352   3355     1
   3352   3356     1
   3353   3378     1
   3353   3357     1
   3353   3355     1
   3353   3356     1
   3354   3359     1
   3354   3360     1
   3354   3369     1
   3354   3370     1
   3355   3358     1
   3355   3368     1
   3356   3358     1
   3356   3368     1
   3357   3362     1
   3357   3363     1
   3357   3372     1
   3357   3373     1
   3358   3369     1
   3358   3370     1
   3359   3368     1
   3359   3364     1
   3359   3362     1
   3359   3363     1
   3360   3368     1
   3360   3364     1
   3360   3362     1
   3360   3363     1
   3361   3367     1
   3362   3365     1
   3362   3366     1
   3363   3365     1
   3363   3366     1
   3365   3367     1
   3369   3374     1
   3369   3372     1
   3369   3373     1
   3370   3374     1
   3370   3372     1
   3370   3373     1
   3371   3377     1
   3372   3375     1
   3372   3376     1
   3373   3375     1
   3373   3376     1
   3375   3377     1
   3379   3386     1
   3379   3387     1
   3380   3385     1
   3380   3383     1
   3380   3384     1
   3381   3385     1
   3381   3383     1
   3381   3384     1
   3383   3388     1
   3383   3386     1
   3383   3387     1
   3383   3409     1
   3384   3388     1
   3384   3386     1
   3384   3387     1
   3384   3409     1
   3385   3390     1
   3385   3391     1
   3385   3400     1
   3385   3401     1
   3386   3389     1
   3386   3399     1
   3387   3389     1
   3387   3399     1
   3388   3393     1
   3388   3394     1
   3388   3403     1
   3388   3404     1
   3389   3400     1
   3389   3401     1
   3390   3395     1
   3390   3393     1
   3390   3394     1
   3390   3399     1
   3391   3395     1
   3391   3393     1
   3391   3394     1
   3391   3399     1
   3392   3398     1
   3393   3396     1
   3393   3397     1
   3394   3396     1
   3394   3397     1
   3396   3398     1
   3400   3405     1
   3400   3403     1
   3400   3404     1
   3401   3405     1
   3401   3403     1
   3401   3404     1
   3402   3408     1
   3403   3406     1
   3403   3407     1
   3404   3406     1
   3404   3407     1
   3406   3408     1
   3410   3417     1
   3410   3418     1
   3411   3416     1
   3411   3414     1
   3411   3415     1
   3412   3416     1
   3412   3414     1
   3412   3415     1
   3414   3440     1
   3414   3419     1
   3414   3417     1
   3414   3418     1
   3415   3440     1
   3415   3419     1
   3415   3417     1
   3415   3418     1
   3416   3421     1
   3416   3422     1
   3416   3431     1
   3416   3432     1
   3417   3420     1
   3417   3430     1
   3418   3420     1
   3418   3430     1
   3419   3424     1
   3419   3425     1
   3419   3434     1
   3419   3435     1
   3420   3431     1
   3420   3432     1
   3421   3430     1
   3421   3426     1
   3421   3424     1
   3421   3425     1
   3422   3430     1
   3422   3426     1
   3422   3424     1
   3422   3425     1
   3423   3429     1
   3424   3427     1
   3424   3428     1
   3425   3427     1
   3425   3428     1
   3427   3429     1
   3431   3436     1
   3431   3434     1
   3431   3435     1
   3432   3436     1
   3432   3434     1
   3432   3435     1
   3433   3439     1
   3434   3437     1
   3434   3438     1
   3435   3437     1
   3435   3438     1
   3437   3439     1
   3441   3448     1
   3441   3449     1
   3442   3447     1
   3442   3445     1
   3442   3446     1
   3443   3447     1
   3443   3445     1
   3443   3446     1
   3445   3450     1
   3445   3448     1
   3445   3449     1
   3445   3471     1
   3446   3450     1
   3446   3448     1
   3446   3449     1
   3446   3471     1
   3447   3452     1
   3447   3453     1
   3447   3462     1
   3447   3463     1
   3448   3451     1
   3448   3461     1
   3449   3451     1
   3449   3461     1
   3450   3455     1
   3450   3456     1
   3450   3465     1
   3450   3466     1
   3451   3462     1
   3451   3463     1
   3452   3457     1
   3452   3455     1
   3452   3456     1
   3452   3461     1
   3453   3457     1
   3453   3455     1
   3453   3456     1
   3453   3461     1
   3454   3460     1
   3455   3458     1
   3455   3459     1
   3456   3458     1
   3456   3459     1
   3458   3460     1
   3462   3467     1
   3462   3465     1
   3462   3466     1
   3463   3467     1
   3463   3465     1
   3463   3466     1
   3464   3470     1
   3465   3468     1
   3465   3469     1
   3466   3468     1
   3466   3469     1
   3468   3470     1
   3472   3479     1
   3472   3480     1
   3473   3478     1
   3473   3476     1
   3473   3477     1
   3474   3478     1
   3474   3476     1
   3474   3477     1
   3476   3502     1
   3476   3481     1
   3476   3479     1
   3476   3480     1
   3477   3502     1
   3477   3481     1
   3477   3479     1
   3477   3480     1
   3478   3483     1
   3478   3484     1
   3478   3493     1
   3478   3494     1
   3479   3482     1
   3479   3492     1
   3480   3482     1
   3480   3492     1
   3481   3486     1
   3481   3487     1
   3481   3496     1
   3481   3497     1
   3482   3493     1
   3482   3494     1
   3483   3492     1
   3483   3488     1
   3483   3486     1
   3483   3487     1
   3484   3492     1
   3484   3488     1
   3484   3486     1
   3484   3487     1
   3485   3491     1
   3486   3489     1
   3486   3490     1
   3487   3489     1
   3487   3490     1
   3489   3491     1
   3493   3498     1
   3493   3496     1
   3493   3497     1
   3494   3498     1
   3494   3496     1
   3494   3497     1
   3495   3501     1
   3496   3499     1
   3496   3500     1
   3497   3499     1
   3497   3500     1
   3499   3501     1
   3503   3510     1
   3503   3511     1
   3504   3509     1
   3504   3507     1
   3504   3508     1
   3505   3509     1
   3505   3507     1
   3505   3508     1
   3507   3512     1
   3507   3510     1
   3507   3511     1
   3507   3533     1
   3508   3512     1
   3508   3510     1
   3508   3511     1
   3508   3533     1
   3509   3514     1
   3509   3515     1
   3509   3524     1
   3509   3525     1
   3510   3513     1
   3510   3523     1
   3511   3513     1
   3511   3523     1
   3512   3517     1
   3512   3518     1
   3512   3527     1
   3512   3528     1
   3513   3524     1
   3513   3525     1
   3514   3519     1
   3514   3517     1
   3514   3518     1
   3514   3523     1
   3515   3519     1
   3515   3517     1
   3515   3518     1
   3515   3523     1
   3516   3522     1
   3517   3520     1
   3517   3521     1
   3518   3520     1
   3518   3521     1
   3520   3522     1
   3524   3529     1
   3524   3527     1
   3524   3528     1
   3525   3529     1
   3525   3527     1
   3525   3528     1
   3526   3532     1
   3527   3530     1
   3527   3531     1
   3528   3530     1
   3528   3531     1
   3530   3532     1
   3534   3541     1
   3534   3542     1
   3535   3540     1
   3535   3538     1
   3535   3539     1
   3536   3540     1
   3536   3538     1
   3536   3539     1
   3538   3564     1
   3538   3543     1
   3538   3541     1
   3538   3542     1
   3539   3564     1
   3539   3543     1
   3539   3541     1
   3539   3542     1
   3540   3545     1
   3540   3546     1
   3540   3555     1
   3540   3556     1
   3541   3544     1
   3541   3554     1
   3542   3544     1
   3542   3554     1
   3543   3548     1
   3543   3549     1
   3543   3558     1
   3543   3559     1
   3544   3555     1
   3544   3556     1
   3545   3554     1
   3545   3550     1
   3545   3548     1
   3545   3549     1
   3546   3554     1
   3546   3550     1
   3546   3548     1
   3546   3549     1
   3547   3553     1
   3548   3551     1
   3548   3552     1
   3549   3551     1
   3549   3552     1
   3551   3553     1
   3555   3560     1
   3555   3558     1
   3555   3559     1
   3556   3560     1
   3556   3558     1
   3556   3559     1
   3557   3563     1
   3558   3561     1
   3558   3562     1
   3559   3561     1
   3559   3562     1
   3561   3563     1
   3565   3572     1
   3565   3573     1
   3566   3571     1
   3566   3569     1
   3566   3570     1
   3567   3571     1
   3567   3569     1
   3567   3570     1
   3569   3574     1
   3569   3572     1
   3569   3573     1
   3569   3595     1
   3570   3574     1
   3570   3572     1
   3570   3573     1
   3570   3595     1
   3571   3576     1
   3571   3577     1
   3571   3586     1
   3571   3587     1
   3572   3575     1
   3572   3585     1
   3573   3575     1
   3573   3585     1
   3574   3579     1
   3574   3580     1
   3574   3589     1
   3574   3590     1
   3575   3586     1
   3575   3587     1
   3576   3581     1
   3576   3579     1
   3576   3580     1
   3576   3585     1
   3577   3581     1
   3577   3579     1
   3577   3580     1
   3577   3585     1
   3578   3584     1
   3579   3582     1
   3579   3583     1
   3580   3582     1
   3580   3583     1
   3582   3584     1
   3586   3591     1
   3586   3589     1
   3586   3590     1
   3587   3591     1
   3587   3589     1
   3587   3590     1
   3588   3594     1
   3589   3592     1
   3589   3593     1
   3590   3592     1
   3590   3593     1
   3592   3594     1
   3596   3603     1
   3596   3604     1
   3597   3602     1
   3597   3600     1
   3597   3601     1
   3598   3602     1
   3598   3600     1
   3598   3601     1
   3600   3626     1
   3600   3605     1
   3600   3603     1
   3600   3604     1
   3601   3626     1
   3601   3605     1
   3601   3603     1
   3601   3604     1
   3602   3607     1
   3602   3608     1
   3602   3617     1
   3602   3618     1
   3603   3606     1
   3603   3616     1
   3604   3606     1
   3604   3616     1
   3605   3610     1
   3605   3611     1
   3605   3620     1
   3605   3621     1
   3606   3617     1
   3606   3618     1
   3607   3616     1
   3607   3612     1
   3607   3610     1
   3607   3611     1
   3608   3616     1
   3608   3612     1
   3608   3610     1
   3608   3611     1
   3609   3615     1
   3610   3613     1
   3610   3614     1
   3611   3613     1
   3611   3614     1
   3613   3615     1
   3617   3622     1
   3617   3620     1
   3617   3621     1
   3618   3622     1
   3618   3620     1
   3618   3621     1
   3619   3625     1
   3620   3623     1
   3620   3624     1
   3621   3623     1
   3621   3624     1
   3623   3625     1
   3627   3634     1
   3627   3635     1
   3628   3633     1
   3628   3631     1
   3628   3632     1
   3629   3633     1
   3629   3631     1
   3629   3632     1
   3631   3636     1
   3631   3634     1
   3631   3635     1
   3631   3657     1
   3632   3636     1
   3632   3634     1
   3632   3635     1
   3632   3657     1
   3633   3638     1
   3633   3639     1
   3633   3648     1
   3633   3649     1
   3634   3637     1
   3634   3647     1
   3635   3637     1
   3635   3647     1
   3636   3641     1
   3636   3642     1
   3636   3651     1
   3636   3652     1
   3637   3648     1
   3637   3649     1
   3638   3643     1
   3638   3641     1
   3638   3642     1
   3638   3647     1
   3639   3643     1
   3639   3641     1
   3639   3642     1
   3639   3647     1
   3640   3646     1
   3641   3644     1
   3641   3645     1
   3642   3644     1
   3642   3645     1
   3644   3646     1
   3648   3653     1
   3648   3651     1
   3648   3652     1
   3649   3653     1
   3649   3651     1
   3649   3652     1
   3650   3656     1
   3651   3654     1
   3651   3655     1
   3652   3654     1
   3652   3655     1
   3654   3656     1
   3658   3665     1
   3658   3666     1
   3659   3664     1
   3659   3662     1
   3659   3663     1
   3660   3664     1
   3660   3662     1
   3660   3663     1
   3662   3688     1
   3662   3667     1
   3662   3665     1
   3662   3666     1
   3663   3688     1
   3663   3667     1
   3663   3665     1
   3663   3666     1
   3664   3669     1
   3664   3670     1
   3664   3679     1
   3664   3680     1
   3665   3668     1
   3665   3678     1
   3666   3668     1
   3666   3678     1
   3667   3672     1
   3667   3673     1
   3667   3682     1
   3667   3683     1
   3668   3679     1
   3668   3680     1
   3669   3678     1
   3669   3674     1
   3669   3672     1
   3669   3673     1
   3670   3678     1
   3670   3674     1
   3670   3672     1
   3670   3673     1
   3671   3677     1
   3672   3675     1
   3672   3676     1
   3673   3675     1
   3673   3676     1
   3675   3677     1
   3679   3684     1
   3679   3682     1
   3679   3683     1
   3680   3684     1
   3680   3682     1
   3680   3683     1
   3681   3687     1
   3682   3685     1
   3682   3686     1
   3683   3685     1
   3683   3686     1
   3685   3687     1
   3689   3696     1
   3689   3697     1
   3690   3695     1
   3690   3693     1
   3690   3694     1
   3691   3695     1
   3691   3693     1
   3691   3694     1
   3693   3698     1
   3693   3696     1
   3693   3697     1
   3693   3719     1
   3694   3698     1
   3694   3696     1
   3694   3697     1
   3694   3719     1
   3695   3700     1
   3695   3701     1
   3695   3710     1
   3695   3711     1
   3696   3699     1
   3696   3709     1
   3697   3699     1
   3697   3709     1
   3698   3703     1
   3698   3704     1
   3698   3713     1
   3698   3714     1
   3699   3710     1
   3699   3711     1
   3700   3705     1
   3700   3703     1
   3700   3704     1
   3700   3709     1
   3701   3705     1
   3701   3703     1
   3701   3704     1
   3701   3709     1
   3702   3708     1
   3703   3706     1
   3703   3707     1
   3704   3706     1
   3704   3707     1
   3706   3708     1
   3710   3715     1
   3710   3713     1
   3710   3714     1
   3711   3715     1
   3711   3713     1
   3711   3714     1
   3712   3718     1
   3713   3716     1
   3713   3717     1
   3714   3716     1
   3714   3717     1
   3716   3718     1
   3720   3727     1
   3720   3728     1
   3721   3726     1
   3721   3724     1
   3721   3725     1
   3722   3726     1
   3722   3724     1
   3722   3725     1
   3724   3750     1
   3724   3729     1
   3724   3727     1
   3724   3728     1
   3725   3750     1
   3725   3729     1
   3725   3727     1
   3725   3728     1
   3726   3731     1
   3726   3732     1
   3726   3741     1
   3726   3742     1
   3727   3730     1
   3727   3740     1
   3728   3730     1
   3728   3740     1
   3729   3734     1
   3729   3735     1
   3729   3744     1
   3729   3745     1
   3730   3741     1
   3730   3742     1
   3731   3740     1
   3731   3736     1
   3731   3734     1
   3731   3735     1
   3732   3740     1
   3732   3736     1
   3732   3734     1
   3732   3735     1
   3733   3739     1
   3734   3737     1
   3734   3738     1
   3735   3737     1
   3735   3738     1
   3737   3739     1
   3741   3746     1
   3741   3744     1
   3741   3745     1
   3742   3746     1
   3742   3744     1
   3742   3745     1
   3743   3749     1
   3744   3747     1
   3744   3748     1
   3745   3747     1
   3745   3748     1
   3747   3749     1
   3751   3758     1
   3751   3759     1
   3752   3757     1
   3752   3755     1
   3752   3756     1
   3753   3757     1
   3753   3755     1
   3753   3756     1
   3755   3760     1
   3755   3758     1
   3755   3759     1
   3755   3781     1
   3756   3760     1
   3756   3758     1
   3756   3759     1
   3756   3781     1
   3757   3762     1
   3757   3763     1
   3757   3772     1
   3757   3773     1
   3758   3761     1
   3758   3771     1
   3759   3761     1
   3759   3771     1
   3760   3765     1
   3760   3766     1
   3760   3775     1
   3760   3776     1
   3761   3772     1
   3761   3773     1
   3762   3767     1
   3762   3765     1
   3762   3766     1
   3762   3771     1
   3763   3767     1
   3763   3765     1
   3763   3766     1
   3763   3771     1
   3764   3770     1
   3765   3768     1
   3765   3769     1
   3766   3768     1
   3766   3769     1
   3768   3770     1
   3772   3777     1
   3772   3775     1
   3772   3776     1
   3773   3777     1
   3773   3775     1
   3773   3776     1
   3774   3780     1
   3775   3778     1
   3775   3779     1
   3776   3778     1
   3776   3779     1
   3778   3780     1

[ angles ]
;    ai     aj     ak funct         c0         c1         c2         c3
      1      2      8     1   107.9700462 569.024000
      1      5     11     1   107.9700462 569.024000
      2      1      5     1   112.4800480 524.673600
      2      8     14     1   111.5100476 526.347200
      5     11     17     1   111.5100476 526.347200
      8     14     20     1   111.0400475 552.288000
     11     17     21     1   111.0400475 552.288000
     14     20     28     1   112.3500484 533.878400
     14     20     31     1   112.3500484 533.878400
     17     21     22     1   112.3500484 533.878400
     17     21     25     1   112.3500484 533.878400
     20     28     40     1   111.0400475 552.288000
     20     31     43     1   111.0400475 552.288000
     21     22     34     1   111.0400475 552.288000
     21     25     37     1   111.0400475 552.288000
     22     21     25     1   112.3500484 533.878400
     22     34     55     1   111.5100476 526.347200
     25     37     52     1   111.5100476 526.347200
     28     20     31     1   112.3500484 533.878400
     28     40     49     1   111.5100476 526.347200
     31     43     46     1   111.5100476 526.347200
     34     55    173     1   107.9700462 569.024000
     37     52    144     1   107.9700462 569.024000
     40     49    115     1   107.9700462 569.024000
     43     46     86     1   107.9700462 569.024000
     46     86     77     1   112.4800480 524.673600
     49    115    106     1   112.4800480 524.673600
     52    144    135     1   112.4800480 524.673600
     55    173    164     1   112.4800480 524.673600
     58     59     71     1   111.0400475 552.288000
     58     62     74     1   111.0400475 552.288000
     58     65     68     1   111.0400475 552.288000
     59     58     62     1   112.3500484 533.878400
     59     58     65     1   112.3500484 533.878400
     59     71     83     1   111.5100476 526.347200
     62     58     65     1   112.3500484 533.878400
     62     74     80     1   111.5100476 526.347200
     65     68     77     1   111.5100476 526.347200
     68     77     86     1   107.9700462 569.024000
     71     83    231     1   107.9700462 569.024000
     74     80    202     1   107.9700462 569.024000
     80    202    193     1   112.4800480 524.673600
     83    231    222     1   112.4800480 524.673600
     87     88    100     1   111.0400475 552.288000
     87     91    103     1   111.0400475 552.288000
     87     94     97     1   111.0400475 552.288000
     88     87     91     1   112.3500484 533.878400
     88     87     94     1   112.3500484 533.878400
     88    100    112     1   111.5100476 526.347200
     91     87     94     1   112.3500484 533.878400
     91    103    109     1   111.5100476 526.347200
     94     97    106     1   111.5100476 526.347200
     97    106    115     1   107.9700462 569.024000
    100    112    289     1   107.9700462 569.024000
    103    109    260     1   107.9700462 569.024000
    109    260    251     1   112.4800480 524.673600
    112    289    280     1   112.4800480 524.673600
    116    117    129     1   111.0400475 552.288000
    116    120    132     1   111.0400475 552.288000
    116    123    126     1   111.0400475 552.288000
    117    116    120     1   112.3500484 533.878400
    117    116    123     1   112.3500484 533.878400
    117    129    141     1   111.5100476 526.347200
    120    116    123     1   112.3500484 533.878400
    120    132    138     1   111.5100476 526.347200
    123    126    135     1   111.5100476 526.347200
    126    135    144     1   107.9700462 569.024000
    129    141    347     1   107.9700462 569.024000
    132    138    318     1   107.9700462 569.024000
    138    318    309     1   112.4800480 524.673600
    141    347    338     1   112.4800480 524.673600
    145    146    158     1   111.0400475 552.288000
    145    149    161     1   111.0400475 552.288000
    145    152    155     1   111.0400475 552.288000
    146    145    149     1   112.3500484 533.878400
    146    145    152     1   112.3500484 533.878400
    146    158    170     1   111.5100476 526.347200
    149    145    152     1   112.3500484 533.878400
    149    161    167     1   111.5100476 526.347200
    152    155    164     1   111.5100476 526.347200
    155    164    173     1   107.9700462 569.024000
    158    170    405     1   107.9700462 569.024000
    161    167    376     1   107.9700462 569.024000
    167    376    367     1   112.4800480 524.673600
    170    405    396     1   112.4800480 524.673600
    174    175    187     1   111.0400475 552.288000
    174    178    190     1   111.0400475 552.288000
    174    181    184     1   111.0400475 552.288000
    175    174    178     1   112.3500484 533.878400
    175    174    181     1   112.3500484 533.878400
    175    187    199     1   111.5100476 526.347200
    178    174    181     1   112.3500484 533.878400
    178    190    196     1   111.5100476 526.347200
    181    184    193     1   111.5100476 526.347200
    184    193    202     1   107.9700462 569.024000
    187    199    463     1   107.9700462 569.024000
    190    196    434     1   107.9700462 569.024000
    196    434    425     1   112.4800480 524.673600
    199    463    454     1   112.4800480 524.673600
    203    204    216     1   111.0400475 552.288000
    203    207    219     1   111.0400475 552.288000
    203    210    213     1   111.0400475 552.288000
    204    203    207     1   112.3500484 533.878400
    204    203    210     1   112.3500484 533.878400
    204    216    228     1   111.5100476 526.347200
    207    203    210     1   112.3500484 533.878400
    207    219    225     1   111.5100476 526.347200
    210    213    222     1   111.5100476 526.347200
    213    222    231     1   107.9700462 569.024000
    216    228    521     1   107.9700462 569.024000
    219    225    492     1   107.9700462 569.024000
    225    492    483     1   112.4800480 524.673600
    228    521    512     1   112.4800480 524.673600
    232    233    245     1   111.0400475 552.288000
    232    236    248     1   111.0400475 552.288000
    232    239    242     1   111.0400475 552.288000
    233    232    236     1   112.3500484 533.878400
    233    232    239     1   112.3500484 533.878400
    233    245    257     1   111.5100476 526.347200
    236    232    239     1   112.3500484 533.878400
    236    248    254     1   111.5100476 526.347200
    239    242    251     1   111.5100476 526.347200
    242    251    260     1   107.9700462 569.024000
    245    257    579     1   107.9700462 569.024000
    248    254    550     1   107.9700462 569.024000
    254    550    541     1   112.4800480 524.673600
    257    579    570     1   112.4800480 524.673600
    261    262    274     1   111.0400475 552.288000
    261    265    277     1   111.0400475 552.288000
    261    268    271     1   111.0400475 552.288000
    262    261    265     1   112.3500484 533.878400
    262    261    268     1   112.3500484 533.878400
    262    274    286     1   111.5100476 526.347200
    265    261    268     1   112.3500484 533.878400
    265    277    283     1   111.5100476 526.347200
    268    271    280     1   111.5100476 526.347200
    271    280    289     1   107.9700462 569.024000
    274    286    637     1   107.9700462 569.024000
    277    283    608     1   107.9700462 569.024000
    283    608    599     1   112.4800480 524.673600
    286    637    628     1   112.4800480 524.673600
    290    291    303     1   111.0400475 552.288000
    290    294    306     1   111.0400475 552.288000
    290    297    300     1   111.0400475 552.288000
    291    290    294     1   112.3500484 533.878400
    291    290    297     1   112.3500484 533.878400
    291    303    315     1   111.5100476 526.347200
    294    290    297     1   112.3500484 533.878400
    294    306    312     1   111.5100476 526.347200
    297    300    309     1   111.5100476 526.347200
    300    309    318     1   107.9700462 569.024000
    303    315    695     1   107.9700462 569.024000
    306    312    666     1   107.9700462 569.024000
    312    666    657     1   112.4800480 524.673600
    315    695    686     1   112.4800480 524.673600
    319    320    332     1   111.0400475 552.288000
    319    323    335     1   111.0400475 552.288000
    319    326    329     1   111.0400475 552.288000
    320    319    323     1   112.3500484 533.878400
    320    319    326     1   112.3500484 533.878400
    320    332    344     1   111.5100476 526.347200
    323    319    326     1   112.3500484 533.878400
    323    335    341     1   111.5100476 526.347200
    326    329    338     1   111.5100476 526.347200
    329    338    347     1   107.9700462 569.024000
    332    344    753     1   107.9700462 569.024000
    335    341    724     1   107.9700462 569.024000
    341    724    715     1   112.4800480 524.673600
    344    753    744     1   112.4800480 524.673600
    348    349    361     1   111.0400475 552.288000
    348    352    364     1   111.0400475 552.288000
    348    355    358     1   111.0400475 552.288000
    349    348    352     1   112.3500484 533.878400
    349    348    355     1   112.3500484 533.878400
    349    361    373     1   111.5100476 526.347200
    352    348    355     1   112.3500484 533.878400
    352    364    370     1   111.5100476 526.347200
    355    358    367     1   111.5100476 526.347200
    358    367    376     1   107.9700462 569.024000
    361    373    811     1   107.9700462 569.024000
    364    370    782     1   107.9700462 569.024000
    370    782    773     1   112.4800480 524.673600
    373    811    802     1   112.4800480 524.673600
    377    378    390     1   111.0400475 552.288000
    377    381    393     1   111.0400475 552.288000
    377    384    387     1   111.0400475 552.288000
    378    377    381     1   112.3500484 533.878400
    378    377    384     1   112.3500484 533.878400
    378    390    402     1   111.5100476 526.347200
    381    377    384     1   112.3500484 533.878400
    381    393    399     1   111.5100476 526.347200
    384    387    396     1   111.5100476 526.347200
    387    396    405     1   107.9700462 569.024000
    390    402    869     1   107.9700462 569.024000
    393    399    840     1   107.9700462 569.024000
    399    840    831     1   112.4800480 524.673600
    402    869    860     1   112.4800480 524.673600
    406    407    419     1   111.0400475 552.288000
    406    410    422     1   111.0400475 552.288000
    406    413    416     1   111.0400475 552.288000
    407    406    410     1   112.3500484 533.878400
    407    406    413     1   112.3500484 533.878400
    407    419    431     1   111.5100476 526.347200
    410    406    413     1   112.3500484 533.878400
    410    422    428     1   111.5100476 526.347200
    413    416    425     1   111.5100476 526.347200
    416    425    434     1   107.9700462 569.024000
    419    431    927     1   107.9700462 569.024000
    422    428    898     1   107.9700462 569.024000
    428    898    889     1   112.4800480 524.673600
    431    927    918     1   112.4800480 524.673600
    435    436    448     1   111.0400475 552.288000
    435    439    451     1   111.0400475 552.288000
    435    442    445     1   111.0400475 552.288000
    436    435    439     1   112.3500484 533.878400
    436    435    442     1   112.3500484 533.878400
    436    448    460     1   111.5100476 526.347200
    439    435    442     1   112.3500484 533.878400
    439    451    457     1   111.5100476 526.347200
    442    445    454     1   111.5100476 526.347200
    445    454    463     1   107.9700462 569.024000
    448    460    985     1   107.9700462 569.024000
    451    457    956     1   107.9700462 569.024000
    457    956    947     1   112.4800480 524.673600
    460    985    976     1   112.4800480 524.673600
    464    465    477     1   111.0400475 552.288000
    464    468    480     1   111.0400475 552.288000
    464    471    474     1   111.0400475 552.288000
    465    464    468     1   112.3500484 533.878400
    465    464    471     1   112.3500484 533.878400
    465    477    489     1   111.5100476 526.347200
    468    464    471     1   112.3500484 533.878400
    468    480    486     1   111.5100476 526.347200
    471    474    483     1   111.5100476 526.347200
    474    483    492     1   107.9700462 569.024000
    477    489   1043     1   107.9700462 569.024000
    480    486   1014     1   107.9700462 569.024000
    486   1014   1005     1   112.4800480 524.673600
    489   1043   1034     1   112.4800480 524.673600
    493    494    506     1   111.0400475 552.288000
    493    497    509     1   111.0400475 552.288000
    493    500    503     1   111.0400475 552.288000
    494    493    497     1   112.3500484 533.878400
    494    493    500     1   112.3500484 533.878400
    494    506    518     1   111.5100476 526.347200
    497    493    500     1   112.3500484 533.878400
    497    509    515     1   111.5100476 526.347200
    500    503    512     1   111.5100476 526.347200
    503    512    521     1   107.9700462 569.024000
    506    518   1101     1   107.9700462 569.024000
    509    515   1072     1   107.9700462 569.024000
    515   1072   1063     1   112.4800480 524.673600
    518   1101   1092     1   112.4800480 524.673600
    522    523    535     1   111.0400475 552.288000
    522    526    538     1   111.0400475 552.288000
    522    529    532     1   111.0400475 552.288000
    523    522    526     1   112.3500484 533.878400
    523    522    529     1   112.3500484 533.878400
    523    535    547     1   111.5100476 526.347200
    526    522    529     1   112.3500484 533.878400
    526    538    544     1   111.5100476 526.347200
    529    532    541     1   111.5100476 526.347200
    532    541    550     1   107.9700462 569.024000
    535    547   1159     1   107.9700462 569.024000
    538    544   1130     1   107.9700462 569.024000
    544   1130   1121     1   112.4800480 524.673600
    547   1159   1150     1   112.4800480 524.673600
    551    552    564     1   111.0400475 552.288000
    551    555    567     1   111.0400475 552.288000
    551    558    561     1   111.0400475 552.288000
    552    551    555     1   112.3500484 533.878400
    552    551    558     1   112.3500484 533.878400
    552    564    576     1   111.5100476 526.347200
    555    551    558     1   112.3500484 533.878400
    555    567    573     1   111.5100476 526.347200
    558    561    570     1   111.5100476 526.347200
    561    570    579     1   107.9700462 569.024000
    564    576   1217     1   107.9700462 569.024000
    567    573   1188     1   107.9700462 569.024000
    573   1188   1179     1   112.4800480 524.673600
    576   1217   1208     1   112.4800480 524.673600
    580    581    593     1   111.0400475 552.288000
    580    584    596     1   111.0400475 552.288000
    580    587    590     1   111.0400475 552.288000
    581    580    584     1   112.3500484 533.878400
    581    580    587     1   112.3500484 533.878400
    581    593    605     1   111.5100476 526.347200
    584    580    587     1   112.3500484 533.878400
    584    596    602     1   111.5100476 526.347200
    587    590    599     1   111.5100476 526.347200
    590    599    608     1   107.9700462 569.024000
    593    605   1275     1   107.9700462 569.024000
    596    602   1246     1   107.9700462 569.024000
    602   1246   1237     1   112.4800480 524.673600
    605   1275   1266     1   112.4800480 524.673600
    609    610    622     1   111.0400475 552.288000
    609    613    625     1   111.0400475 552.288000
    609    616    619     1   111.0400475 552.288000
    610    609    613     1   112.3500484 533.878400
    610    609    616     1   112.3500484 533.878400
    610    622    634     1   111.5100476 526.347200
    613    609    616     1   112.3500484 533.878400
    613    625    631     1   111.5100476 526.347200
    616    619    628     1   111.5100476 526.347200
    619    628    637     1   107.9700462 569.024000
    622    634   1333     1   107.9700462 569.024000
    625    631   1304     1   107.9700462 569.024000
    631   1304   1295     1   112.4800480 524.673600
    634   1333   1324     1   112.4800480 524.673600
    638    639    651     1   111.0400475 552.288000
    638    642    654     1   111.0400475 552.288000
    638    645    648     1   111.0400475 552.288000
    639    638    642     1   112.3500484 533.878400
    639    638    645     1   112.3500484 533.878400
    639    651    663     1   111.5100476 526.347200
    642    638    645     1   112.3500484 533.878400
    642    654    660     1   111.5100476 526.347200
    645    648    657     1   111.5100476 526.347200
    648    657    666     1   107.9700462 569.024000
    651    663   1391     1   107.9700462 569.024000
    654    660   1362     1   107.9700462 569.024000
    660   1362   1353     1   112.4800480 524.673600
    663   1391   1382     1   112.4800480 524.673600
    667    668    680     1   111.0400475 552.288000
    667    671    683     1   111.0400475 552.288000
    667    674    677     1   111.0400475 552.288000
    668    667    671     1   112.3500484 533.878400
    668    667    674     1   112.3500484 533.878400
    668    680    692     1   111.5100476 526.347200
    671    667    674     1   112.3500484 533.878400
    671    683    689     1   111.5100476 526.347200
    674    677    686     1   111.5100476 526.347200
    677    686    695     1   107.9700462 569.024000
    680    692   1449     1   107.9700462 569.024000
    683    689   1420     1   107.9700462 569.024000
    689   1420   1411     1   112.4800480 524.673600
    692   1449   1440     1   112.4800480 524.673600
    696    697    709     1   111.0400475 552.288000
    696    700    712     1   111.0400475 552.288000
    696    703    706     1   111.0400475 552.288000
    697    696    700     1   112.3500484 533.878400
    697    696    703     1   112.3500484 533.878400
    697    709    721     1   111.5100476 526.347200
    700    696    703     1   112.3500484 533.878400
    700    712    718     1   111.5100476 526.347200
    703    706    715     1   111.5100476 526.347200
    706    715    724     1   107.9700462 569.024000
    709    721   1507     1   107.9700462 569.024000
    712    718   1478     1   107.9700462 569.024000
    718   1478   1469     1   112.4800480 524.673600
    721   1507   1498     1   112.4800480 524.673600
    725    726    738     1   111.0400475 552.288000
    725    729    741     1   111.0400475 552.288000
    725    732    735     1   111.0400475 552.288000
    726    725    729     1   112.3500484 533.878400
    726    725    732     1   112.3500484 533.878400
    726    738    750     1   111.5100476 526.347200
    729    725    732     1   112.3500484 533.878400
    729    741    747     1   111.5100476 526.347200
    732    735    744     1   111.5100476 526.347200
    735    744    753     1   107.9700462 569.024000
    738    750   1565     1   107.9700462 569.024000
    741    747   1536     1   107.9700462 569.024000
    747   1536   1527     1   112.4800480 524.673600
    750   1565   1556     1   112.4800480 524.673600
    754    755    767     1   111.0400475 552.288000
    754    758    770     1   111.0400475 552.288000
    754    761    764     1   111.0400475 552.288000
    755    754    758     1   112.3500484 533.878400
    755    754    761     1   112.3500484 533.878400
    755    767    779     1   111.5100476 526.347200
    758    754    761     1   112.3500484 533.878400
    758    770    776     1   111.5100476 526.347200
    761    764    773     1   111.5100476 526.347200
    764    773    782     1   107.9700462 569.024000
    767    779   1623     1   107.9700462 569.024000
    770    776   1594     1   107.9700462 569.024000
    776   1594   1585     1   112.4800480 524.673600
    779   1623   1614     1   112.4800480 524.673600
    783    784    796     1   111.0400475 552.288000
    783    787    799     1   111.0400475 552.288000
    783    790    793     1   111.0400475 552.288000
    784    783    787     1   112.3500484 533.878400
    784    783    790     1   112.3500484 533.878400
    784    796    808     1   111.5100476 526.347200
    787    783    790     1   112.3500484 533.878400
    787    799    805     1   111.5100476 526.347200
    790    793    802     1   111.5100476 526.347200
    793    802    811     1   107.9700462 569.024000
    796    808   1681     1   107.9700462 569.024000
    799    805   1652     1   107.9700462 569.024000
    805   1652   1643     1   112.4800480 524.673600
    808   1681   1672     1   112.4800480 524.673600
    812    813    825     1   111.0400475 552.288000
    812    816    828     1   111.0400475 552.288000
    812    819    822     1   111.0400475 552.288000
    813    812    816     1   112.3500484 533.878400
    813    812    819     1   112.3500484 533.878400
    813    825    837     1   111.5100476 526.347200
    816    812    819     1   112.3500484 533.878400
    816    828    834     1   111.5100476 526.347200
    819    822    831     1   111.5100476 526.347200
    822    831    840     1   107.9700462 569.024000
    825    837   1739     1   107.9700462 569.024000
    828    834   1710     1   107.9700462 569.024000
    834   1710   1701     1   112.4800480 524.673600
    837   1739   1730     1   112.4800480 524.673600
    841    842    854     1   111.0400475 552.288000
    841    845    857     1   111.0400475 552.288000
    841    848    851     1   111.0400475 552.288000
    842    841    845     1   112.3500484 533.878400
    842    841    848     1   112.3500484 533.878400
    842    854    866     1   111.5100476 526.347200
    845    841    848     1   112.3500484 533.878400
    845    857    863     1   111.5100476 526.347200
    848    851    860     1   111.5100476 526.347200
    851    860    869     1   107.9700462 569.024000
    854    866   1797     1   107.9700462 569.024000
    857    863   1768     1   107.9700462 569.024000
    863   1768   1759     1   112.4800480 524.673600
    866   1797   1788     1   112.4800480 524.673600
    870    871    883     1   111.0400475 552.288000
    870    874    886     1   111.0400475 552.288000
    870    877    880     1   111.0400475 552.288000
    871    870    874     1   112.3500484 533.878400
    871    870    877     1   112.3500484 533.878400
    871    883    895     1   111.5100476 526.347200
    874    870    877     1   112.3500484 533.878400
    874    886    892     1   111.5100476 526.347200
    877    880    889     1   111.5100476 526.347200
    880    889    898     1   107.9700462 569.024000
    883    895   1859     1   107.9700462 569.024000
    886    892   1828     1   107.9700462 569.024000
    892   1828   1798     1   112.4800480 524.673600
    895   1859   1829     1   112.4800480 524.673600
    899    900    912     1   111.0400475 552.288000
    899    903    915     1   111.0400475 552.288000
    899    906    909     1   111.0400475 552.288000
    900    899    903     1   112.3500484 533.878400
    900    899    906     1   112.3500484 533.878400
    900    912    924     1   111.5100476 526.347200
    903    899    906     1   112.3500484 533.878400
    903    915    921     1   111.5100476 526.347200
    906    909    918     1   111.5100476 526.347200
    909    918    927     1   107.9700462 569.024000
    912    924   1921     1   107.9700462 569.024000
    915    921   1890     1   107.9700462 569.024000
    921   1890   1860     1   112.4800480 524.673600
    924   1921   1891     1   112.4800480 524.673600
    928    929    941     1   111.0400475 552.288000
    928    932    944     1   111.0400475 552.288000
    928    935    938     1   111.0400475 552.288000
    929    928    932     1   112.3500484 533.878400
    929    928    935     1   112.3500484 533.878400
    929    941    953     1   111.5100476 526.347200
    932    928    935     1   112.3500484 533.878400
    932    944    950     1   111.5100476 526.347200
    935    938    947     1   111.5100476 526.347200
    938    947    956     1   107.9700462 569.024000
    941    953   1983     1   107.9700462 569.024000
    944    950   1952     1   107.9700462 569.024000
    950   1952   1922     1   112.4800480 524.673600
    953   1983   1953     1   112.4800480 524.673600
    957    958    970     1   111.0400475 552.288000
    957    961    973     1   111.0400475 552.288000
    957    964    967     1   111.0400475 552.288000
    958    957    961     1   112.3500484 533.878400
    958    957    964     1   112.3500484 533.878400
    958    970    982     1   111.5100476 526.347200
    961    957    964     1   112.3500484 533.878400
    961    973    979     1   111.5100476 526.347200
    964    967    976     1   111.5100476 526.347200
    967    976    985     1   107.9700462 569.024000
    970    982   2045     1   107.9700462 569.024000
    973    979   2014     1   107.9700462 569.024000
    979   2014   1984     1   112.4800480 524.673600
    982   2045   2015     1   112.4800480 524.673600
    986    987    999     1   111.0400475 552.288000
    986    990   1002     1   111.0400475 552.288000
    986    993    996     1   111.0400475 552.288000
    987    986    990     1   112.3500484 533.878400
    987    986    993     1   112.3500484 533.878400
    987    999   1011     1   111.5100476 526.347200
    990    986    993     1   112.3500484 533.878400
    990   1002   1008     1   111.5100476 526.347200
    993    996   1005     1   111.5100476 526.347200
    996   1005   1014     1   107.9700462 569.024000
    999   1011   2107     1   107.9700462 569.024000
   1002   1008   2076     1   107.9700462 569.024000
   1008   2076   2046     1   112.4800480 524.673600
   1011   2107   2077     1   112.4800480 524.673600
   1015   1016   1028     1   111.0400475 552.288000
   1015   1019   1031     1   111.0400475 552.288000
   1015   1022   1025     1   111.0400475 552.288000
   1016   1015   1019     1   112.3500484 533.878400
   1016   1015   1022     1   112.3500484 533.878400
   1016   1028   1040     1   111.5100476 526.347200
   1019   1015   1022     1   112.3500484 533.878400
   1019   1031   1037     1   111.5100476 526.347200
   1022   1025   1034     1   111.5100476 526.347200
   1025   1034   1043     1   107.9700462 569.024000
   1028   1040   2169     1   107.9700462 569.024000
   1031   1037   2138     1   107.9700462 569.024000
   1037   2138   2108     1   112.4800480 524.673600
   1040   2169   2139     1   112.4800480 524.673600
   1044   1045   1057     1   111.0400475 552.288000
   1044   1048   1060     1   111.0400475 552.288000
   1044   1051   1054     1   111.0400475 552.288000
   1045   1044   1048     1   112.3500484 533.878400
   1045   1044   1051     1   112.3500484 533.878400
   1045   1057   1069     1   111.5100476 526.347200
   1048   1044   1051     1   112.3500484 533.878400
   1048   1060   1066     1   111.5100476 526.347200
   1051   1054   1063     1   111.5100476 526.347200
   1054   1063   1072     1   107.9700462 569.024000
   1057   1069   2231     1   107.9700462 569.024000
   1060   1066   2200     1   107.9700462 569.024000
   1066   2200   2170     1   112.4800480 524.673600
   1069   2231   2201     1   112.4800480 524.673600
   1073   1074   1086     1   111.0400475 552.288000
   1073   1077   1089     1   111.0400475 552.288000
   1073   1080   1083     1   111.0400475 552.288000
   1074   1073   1077     1   112.3500484 533.878400
   1074   1073   1080     1   112.3500484 533.878400
   1074   1086   1098     1   111.5100476 526.347200
   1077   1073   1080     1   112.3500484 533.878400
   1077   1089   1095     1   111.5100476 526.347200
   1080   1083   1092     1   111.5100476 526.347200
   1083   1092   1101     1   107.9700462 569.024000
   1086   1098   2293     1   107.9700462 569.024000
   1089   1095   2262     1   107.9700462 569.024000
   1095   2262   2232     1   112.4800480 524.673600
   1098   2293   2263     1   112.4800480 524.673600
   1102   1103   1115     1   111.0400475 552.288000
   1102   1106   1118     1   111.0400475 552.288000
   1102   1109   1112     1   111.0400475 552.288000
   1103   1102   1106     1   112.3500484 533.878400
   1103   1102   1109     1   112.3500484 533.878400
   1103   1115   1127     1   111.5100476 526.347200
   1106   1102   1109     1   112.3500484 533.878400
   1106   1118   1124     1   111.5100476 526.347200
   1109   1112   1121     1   111.5100476 526.347200
   1112   1121   1130     1   107.9700462 569.024000
   1115   1127   2355     1   107.9700462 569.024000
   1118   1124   2324     1   107.9700462 569.024000
   1124   2324   2294     1   112.4800480 524.673600
   1127   2355   2325     1   112.4800480 524.673600
   1131   1132   1144     1   111.0400475 552.288000
   1131   1135   1147     1   111.0400475 552.288000
   1131   1138   1141     1   111.0400475 552.288000
   1132   1131   1135     1   112.3500484 533.878400
   1132   1131   1138     1   112.3500484 533.878400
   1132   1144   1156     1   111.5100476 526.347200
   1135   1131   1138     1   112.3500484 533.878400
   1135   1147   1153     1   111.5100476 526.347200
   1138   1141   1150     1   111.5100476 526.347200
   1141   1150   1159     1   107.9700462 569.024000
   1144   1156   2417     1   107.9700462 569.024000
   1147   1153   2386     1   107.9700462 569.024000
   1153   2386   2356     1   112.4800480 524.673600
   1156   2417   2387     1   112.4800480 524.673600
   1160   1161   1173     1   111.0400475 552.288000
   1160   1164   1176     1   111.0400475 552.288000
   1160   1167   1170     1   111.0400475 552.288000
   1161   1160   1164     1   112.3500484 533.878400
   1161   1160   1167     1   112.3500484 533.878400
   1161   1173   1185     1   111.5100476 526.347200
   1164   1160   1167     1   112.3500484 533.878400
   1164   1176   1182     1   111.5100476 526.347200
   1167   1170   1179     1   111.5100476 526.347200
   1170   1179   1188     1   107.9700462 569.024000
   1173   1185   2479     1   107.9700462 569.024000
   1176   1182   2448     1   107.9700462 569.024000
   1182   2448   2418     1   112.4800480 524.673600
   1185   2479   2449     1   112.4800480 524.673600
   1189   1190   1202     1   111.0400475 552.288000
   1189   1193   1205     1   111.0400475 552.288000
   1189   1196   1199     1   111.0400475 552.288000
   1190   1189   1193     1   112.3500484 533.878400
   1190   1189   1196     1   112.3500484 533.878400
   1190   1202   1214     1   111.5100476 526.347200
   1193   1189   1196     1   112.3500484 533.878400
   1193   1205   1211     1   111.5100476 526.347200
   1196   1199   1208     1   111.5100476 526.347200
   1199   1208   1217     1   107.9700462 569.024000
   1202   1214   2541     1   107.9700462 569.024000
   1205   1211   2510     1   107.9700462 569.024000
   1211   2510   2480     1   112.4800480 524.673600
   1214   2541   2511     1   112.4800480 524.673600
   1218   1219   1231     1   111.0400475 552.288000
   1218   1222   1234     1   111.0400475 552.288000
   1218   1225   1228     1   111.0400475 552.288000
   1219   1218   1222     1   112.3500484 533.878400
   1219   1218   1225     1   112.3500484 533.878400
   1219   1231   1243     1   111.5100476 526.347200
   1222   1218   1225     1   112.3500484 533.878400
   1222   1234   1240     1   111.5100476 526.347200
   1225   1228   1237     1   111.5100476 526.347200
   1228   1237   1246     1   107.9700462 569.024000
   1231   1243   2603     1   107.9700462 569.024000
   1234   1240   2572     1   107.9700462 569.024000
   1240   2572   2542     1   112.4800480 524.673600
   1243   2603   2573     1   112.4800480 524.673600
   1247   1248   1260     1   111.0400475 552.288000
   1247   1251   1263     1   111.0400475 552.288000
   1247   1254   1257     1   111.0400475 552.288000
   1248   1247   1251     1   112.3500484 533.878400
   1248   1247   1254     1   112.3500484 533.878400
   1248   1260   1272     1   111.5100476 526.347200
   1251   1247   1254     1   112.3500484 533.878400
   1251   1263   1269     1   111.5100476 526.347200
   1254   1257   1266     1   111.5100476 526.347200
   1257   1266   1275     1   107.9700462 569.024000
   1260   1272   2665     1   107.9700462 569.024000
   1263   1269   2634     1   107.9700462 569.024000
   1269   2634   2604     1   112.4800480 524.673600
   1272   2665   2635     1   112.4800480 524.673600
   1276   1277   1289     1   111.0400475 552.288000
   1276   1280   1292     1   111.0400475 552.288000
   1276   1283   1286     1   111.0400475 552.288000
   1277   1276   1280     1   112.3500484 533.878400
   1277   1276   1283     1   112.3500484 533.878400
   1277   1289   1301     1   111.5100476 526.347200
   1280   1276   1283     1   112.3500484 533.878400
   1280   1292   1298     1   111.5100476 526.347200
   1283   1286   1295     1   111.5100476 526.347200
   1286   1295   1304     1   107.9700462 569.024000
   1289   1301   2727     1   107.9700462 569.024000
   1292   1298   2696     1   107.9700462 569.024000
   1298   2696   2666     1   112.4800480 524.673600
   1301   2727   2697     1   112.4800480 524.673600
   1305   1306   1318     1   111.0400475 552.288000
   1305   1309   1321     1   111.0400475 552.288000
   1305   1312   1315     1   111.0400475 552.288000
   1306   1305   1309     1   112.3500484 533.878400
   1306   1305   1312     1   112.3500484 533.878400
   1306   1318   1330     1   111.5100476 526.347200
   1309   1305   1312     1   112.3500484 533.878400
   1309   1321   1327     1   111.5100476 526.347200
   1312   1315   1324     1   111.5100476 526.347200
   1315   1324   1333     1   107.9700462 569.024000
   1318   1330   2789     1   107.9700462 569.024000
   1321   1327   2758     1   107.9700462 569.024000
   1327   2758   2728     1   112.4800480 524.673600
   1330   2789   2759     1   112.4800480 524.673600
   1334   1335   1347     1   111.0400475 552.288000
   1334   1338   1350     1   111.0400475 552.288000
   1334   1341   1344     1   111.0400475 552.288000
   1335   1334   1338     1   112.3500484 533.878400
   1335   1334   1341     1   112.3500484 533.878400
   1335   1347   1359     1   111.5100476 526.347200
   1338   1334   1341     1   112.3500484 533.878400
   1338   1350   1356     1   111.5100476 526.347200
   1341   1344   1353     1   111.5100476 526.347200
   1344   1353   1362     1   107.9700462 569.024000
   1347   1359   2851     1   107.9700462 569.024000
   1350   1356   2820     1   107.9700462 569.024000
   1356   2820   2790     1   112.4800480 524.673600
   1359   2851   2821     1   112.4800480 524.673600
   1363   1364   1376     1   111.0400475 552.288000
   1363   1367   1379     1   111.0400475 552.288000
   1363   1370   1373     1   111.0400475 552.288000
   1364   1363   1367     1   112.3500484 533.878400
   1364   1363   1370     1   112.3500484 533.878400
   1364   1376   1388     1   111.5100476 526.347200
   1367   1363   1370     1   112.3500484 533.878400
   1367   1379   1385     1   111.5100476 526.347200
   1370   1373   1382     1   111.5100476 526.347200
   1373   1382   1391     1   107.9700462 569.024000
   1376   1388   2913     1   107.9700462 569.024000
   1379   1385   2882     1   107.9700462 569.024000
   1385   2882   2852     1   112.4800480 524.673600
   1388   2913   2883     1   112.4800480 524.673600
   1392   1393   1405     1   111.0400475 552.288000
   1392   1396   1408     1   111.0400475 552.288000
   1392   1399   1402     1   111.0400475 552.288000
   1393   1392   1396     1   112.3500484 533.878400
   1393   1392   1399     1   112.3500484 533.878400
   1393   1405   1417     1   111.5100476 526.347200
   1396   1392   1399     1   112.3500484 533.878400
   1396   1408   1414     1   111.5100476 526.347200
   1399   1402   1411     1   111.5100476 526.347200
   1402   1411   1420     1   107.9700462 569.024000
   1405   1417   2975     1   107.9700462 569.024000
   1408   1414   2944     1   107.9700462 569.024000
   1414   2944   2914     1   112.4800480 524.673600
   1417   2975   2945     1   112.4800480 524.673600
   1421   1422   1434     1   111.0400475 552.288000
   1421   1425   1437     1   111.0400475 552.288000
   1421   1428   1431     1   111.0400475 552.288000
   1422   1421   1425     1   112.3500484 533.878400
   1422   1421   1428     1   112.3500484 533.878400
   1422   1434   1446     1   111.5100476 526.347200
   1425   1421   1428     1   112.3500484 533.878400
   1425   1437   1443     1   111.5100476 526.347200
   1428   1431   1440     1   111.5100476 526.347200
   1431   1440   1449     1   107.9700462 569.024000
   1434   1446   3037     1   107.9700462 569.024000
   1437   1443   3006     1   107.9700462 569.024000
   1443   3006   2976     1   112.4800480 524.673600
   1446   3037   3007     1   112.4800480 524.673600
   1450   1451   1463     1   111.0400475 552.288000
   1450   1454   1466     1   111.0400475 552.288000
   1450   1457   1460     1   111.0400475 552.288000
   1451   1450   1454     1   112.3500484 533.878400
   1451   1450   1457     1   112.3500484 533.878400
   1451   1463   1475     1   111.5100476 526.347200
   1454   1450   1457     1   112.3500484 533.878400
   1454   1466   1472     1   111.5100476 526.347200
   1457   1460   1469     1   111.5100476 526.347200
   1460   1469   1478     1   107.9700462 569.024000
   1463   1475   3099     1   107.9700462 569.024000
   1466   1472   3068     1   107.9700462 569.024000
   1472   3068   3038     1   112.4800480 524.673600
   1475   3099   3069     1   112.4800480 524.673600
   1479   1480   1492     1   111.0400475 552.288000
   1479   1483   1495     1   111.0400475 552.288000
   1479   1486   1489     1   111.0400475 552.288000
   1480   1479   1483     1   112.3500484 533.878400
   1480   1479   1486     1   112.3500484 533.878400
   1480   1492   1504     1   111.5100476 526.347200
   1483   1479   1486     1   112.3500484 533.878400
   1483   1495   1501     1   111.5100476 526.347200
   1486   1489   1498     1   111.5100476 526.347200
   1489   1498   1507     1   107.9700462 569.024000
   1492   1504   3161     1   107.9700462 569.024000
   1495   1501   3130     1   107.9700462 569.024000
   1501   3130   3100     1   112.4800480 524.673600
   1504   3161   3131     1   112.4800480 524.673600
   1508   1509   1521     1   111.0400475 552.288000
   1508   1512   1524     1   111.0400475 552.288000
   1508   1515   1518     1   111.0400475 552.288000
   1509   1508   1512     1   112.3500484 533.878400
   1509   1508   1515     1   112.3500484 533.878400
   1509   1521   1533     1   111.5100476 526.347200
   1512   1508   1515     1   112.3500484 533.878400
   1512   1524   1530     1   111.5100476 526.347200
   1515   1518   1527     1   111.5100476 526.347200
   1518   1527   1536     1   107.9700462 569.024000
   1521   1533   3223     1   107.9700462 569.024000
   1524   1530   3192     1   107.9700462 569.024000
   1530   3192   3162     1   112.4800480 524.673600
   1533   3223   3193     1   112.4800480 524.673600
   1537   1538   1550     1   111.0400475 552.288000
   1537   1541   1553     1   111.0400475 552.288000
   1537   1544   1547     1   111.0400475 552.288000
   1538   1537   1541     1   112.3500484 533.878400
   1538   1537   1544     1   112.3500484 533.878400
   1538   1550   1562     1   111.5100476 526.347200
   1541   1537   1544     1   112.3500484 533.878400
   1541   1553   1559     1   111.5100476 526.347200
   1544   1547   1556     1   111.5100476 526.347200
   1547   1556   1565     1   107.9700462 569.024000
   1550   1562   3285     1   107.9700462 569.024000
   1553   1559   3254     1   107.9700462 569.024000
   1559   3254   3224     1   112.4800480 524.673600
   1562   3285   3255     1   112.4800480 524.673600
   1566   1567   1579     1   111.0400475 552.288000
   1566   1570   1582     1   111.0400475 552.288000
   1566   1573   1576     1   111.0400475 552.288000
   1567   1566   1570     1   112.3500484 533.878400
   1567   1566   1573     1   112.3500484 533.878400
   1567   1579   1591     1   111.5100476 526.347200
   1570   1566   1573     1   112.3500484 533.878400
   1570   1582   1588     1   111.5100476 526.347200
   1573   1576   1585     1   111.5100476 526.347200
   1576   1585   1594     1   107.9700462 569.024000
   1579   1591   3347     1   107.9700462 569.024000
   1582   1588   3316     1   107.9700462 569.024000
   1588   3316   3286     1   112.4800480 524.673600
   1591   3347   3317     1   112.4800480 524.673600
   1595   1596   1608     1   111.0400475 552.288000
   1595   1599   1611     1   111.0400475 552.288000
   1595   1602   1605     1   111.0400475 552.288000
   1596   1595   1599     1   112.3500484 533.878400
   1596   1595   1602     1   112.3500484 533.878400
   1596   1608   1620     1   111.5100476 526.347200
   1599   1595   1602     1   112.3500484 533.878400
   1599   1611   1617     1   111.5100476 526.347200
   1602   1605   1614     1   111.5100476 526.347200
   1605   1614   1623     1   107.9700462 569.024000
   1608   1620   3409     1   107.9700462 569.024000
   1611   1617   3378     1   107.9700462 569.024000
   1617   3378   3348     1   112.4800480 524.673600
   1620   3409   3379     1   112.4800480 524.673600
   1624   1625   1637     1   111.0400475 552.288000
   1624   1628   1640     1   111.0400475 552.288000
   1624   1631   1634     1   111.0400475 552.288000
   1625   1624   1628     1   112.3500484 533.878400
   1625   1624   1631     1   112.3500484 533.878400
   1625   1637   1649     1   111.5100476 526.347200
   1628   1624   1631     1   112.3500484 533.878400
   1628   1640   1646     1   111.5100476 526.347200
   1631   1634   1643     1   111.5100476 526.347200
   1634   1643   1652     1   107.9700462 569.024000
   1637   1649   3471     1   107.9700462 569.024000
   1640   1646   3440     1   107.9700462 569.024000
   1646   3440   3410     1   112.4800480 524.673600
   1649   3471   3441     1   112.4800480 524.673600
   1653   1654   1666     1   111.0400475 552.288000
   1653   1657   1669     1   111.0400475 552.288000
   1653   1660   1663     1   111.0400475 552.288000
   1654   1653   1657     1   112.3500484 533.878400
   1654   1653   1660     1   112.3500484 533.878400
   1654   1666   1678     1   111.5100476 526.347200
   1657   1653   1660     1   112.3500484 533.878400
   1657   1669   1675     1   111.5100476 526.347200
   1660   1663   1672     1   111.5100476 526.347200
   1663   1672   1681     1   107.9700462 569.024000
   1666   1678   3533     1   107.9700462 569.024000
   1669   1675   3502     1   107.9700462 569.024000
   1675   3502   3472     1   112.4800480 524.673600
   1678   3533   3503     1   112.4800480 524.673600
   1682   1683   1695     1   111.0400475 552.288000
   1682   1686   1698     1   111.0400475 552.288000
   1682   1689   1692     1   111.0400475 552.288000
   1683   1682   1686     1   112.3500484 533.878400
   1683   1682   1689     1   112.3500484 533.878400
   1683   1695   1707     1   111.5100476 526.347200
   1686   1682   1689     1   112.3500484 533.878400
   1686   1698   1704     1   111.5100476 526.347200
   1689   1692   1701     1   111.5100476 526.347200
   1692   1701   1710     1   107.9700462 569.024000
   1695   1707   3595     1   107.9700462 569.024000
   1698   1704   3564     1   107.9700462 569.024000
   1704   3564   3534     1   112.4800480 524.673600
   1707   3595   3565     1   112.4800480 524.673600
   1711   1712   1724     1   111.0400475 552.288000
   1711   1715   1727     1   111.0400475 552.288000
   1711   1718   1721     1   111.0400475 552.288000
   1712   1711   1715     1   112.3500484 533.878400
   1712   1711   1718     1   112.3500484 533.878400
   1712   1724   1736     1   111.5100476 526.347200
   1715   1711   1718     1   112.3500484 533.878400
   1715   1727   1733     1   111.5100476 526.347200
   1718   1721   1730     1   111.5100476 526.347200
   1721   1730   1739     1   107.9700462 569.024000
   1724   1736   3657     1   107.9700462 569.024000
   1727   1733   3626     1   107.9700462 569.024000
   1733   3626   3596     1   112.4800480 524.673600
   1736   3657   3627     1   112.4800480 524.673600
   1740   1741   1753     1   111.0400475 552.288000
   1740   1744   1756     1   111.0400475 552.288000
   1740   1747   1750     1   111.0400475 552.288000
   1741   1740   1744     1   112.3500484 533.878400
   1741   1740   1747     1   112.3500484 533.878400
   1741   1753   1765     1   111.5100476 526.347200
   1744   1740   1747     1   112.3500484 533.878400
   1744   1756   1762     1   111.5100476 526.347200
   1747   1750   1759     1   111.5100476 526.347200
   1750   1759   1768     1   107.9700462 569.024000
   1753   1765   3719     1   107.9700462 569.024000
   1756   1762   3688     1   107.9700462 569.024000
   1762   3688   3658     1   112.4800480 524.673600
   1765   3719   3689     1   112.4800480 524.673600
   1769   1770   1782     1   111.0400475 552.288000
   1769   1773   1785     1   111.0400475 552.288000
   1769   1776   1779     1   111.0400475 552.288000
   1770   1769   1773     1   112.3500484 533.878400
   1770   1769   1776     1   112.3500484 533.878400
   1770   1782   1794     1   111.5100476 526.347200
   1773   1769   1776     1   112.3500484 533.878400
   1773   1785   1791     1   111.5100476 526.347200
   1776   1779   1788     1   111.5100476 526.347200
   1779   1788   1797     1   107.9700462 569.024000
   1782   1794   3781     1   107.9700462 569.024000
   1785   1791   3750     1   107.9700462 569.024000
   1791   3750   3720     1   112.4800480 524.673600
   1794   3781   3751     1   112.4800480 524.673600
   1798   1801   1804     1   111.5100476 526.347200
   1801   1798   1828     1   107.9700462 569.024000
   1801   1804   1807     1   111.0400475 552.288000
   1804   1807   1808     1   112.3500484 533.878400
   1804   1807   1818     1   112.3500484 533.878400
   1807   1808   1811     1   111.0400475 552.288000
   1807   1818   1821     1   111.0400475 552.288000
   1808   1807   1818     1   112.3500484 533.878400
   1808   1811   1814     1   111.0400475 529.694400
   1811   1814   1815     1   123.2000528 564.003200
   1811   1814   1816     1   112.7300484 572.371200
   1815   1814   1816     1   122.1000523 635.131200
   1818   1821   1824     1   111.0400475 529.694400
   1821   1824   1825     1   123.2000528 564.003200
   1821   1824   1826     1   112.7300484 572.371200
   1825   1824   1826     1   122.1000523 635.131200
   1829   1832   1835     1   111.5100476 526.347200
   1832   1835   1838     1   111.0400475 552.288000
   1832   1829   1859     1   107.9700462 569.024000
   1835   1838   1839     1   112.3500484 533.878400
   1835   1838   1849     1   112.3500484 533.878400
   1838   1839   1842     1   111.0400475 552.288000
   1838   1849   1852     1   111.0400475 552.288000
   1839   1842   1845     1   111.0400475 529.694400
   1839   1838   1849     1   112.3500484 533.878400
   1842   1845   1846     1   123.2000528 564.003200
   1842   1845   1847     1   112.7300484 572.371200
   1846   1845   1847     1   122.1000523 635.131200
   1849   1852   1855     1   111.0400475 529.694400
   1852   1855   1856     1   123.2000528 564.003200
   1852   1855   1857     1   112.7300484 572.371200
   1856   1855   1857     1   122.1000523 635.131200
   1860   1863   1866     1   111.5100476 526.347200
   1863   1860   1890     1   107.9700462 569.024000
   1863   1866   1869     1   111.0400475 552.288000
   1866   1869   1870     1   112.3500484 533.878400
   1866   1869   1880     1   112.3500484 533.878400
   1869   1870   1873     1   111.0400475 552.288000
   1869   1880   1883     1   111.0400475 552.288000
   1870   1869   1880     1   112.3500484 533.878400
   1870   1873   1876     1   111.0400475 529.694400
   1873   1876   1877     1   123.2000528 564.003200
   1873   1876   1878     1   112.7300484 572.371200
   1877   1876   1878     1   122.1000523 635.131200
   1880   1883   1886     1   111.0400475 529.694400
   1883   1886   1887     1   123.2000528 564.003200
   1883   1886   1888     1   112.7300484 572.371200
   1887   1886   1888     1   122.1000523 635.131200
   1891   1894   1897     1   111.5100476 526.347200
   1894   1897   1900     1   111.0400475 552.288000
   1894   1891   1921     1   107.9700462 569.024000
   1897   1900   1901     1   112.3500484 533.878400
   1897   1900   1911     1   112.3500484 533.878400
   1900   1901   1904     1   111.0400475 552.288000
   1900   1911   1914     1   111.0400475 552.288000
   1901   1904   1907     1   111.0400475 529.694400
   1901   1900   1911     1   112.3500484 533.878400
   1904   1907   1908     1   123.2000528 564.003200
   1904   1907   1909     1   112.7300484 572.371200
   1908   1907   1909     1   122.1000523 635.131200
   1911   1914   1917     1   111.0400475 529.694400
   1914   1917   1918     1   123.2000528 564.003200
   1914   1917   1919     1   112.7300484 572.371200
   1918   1917   1919     1   122.1000523 635.131200
   1922   1925   1928     1   111.5100476 526.347200
   1925   1922   1952     1   107.9700462 569.024000
   1925   1928   1931     1   111.0400475 552.288000
   1928   1931   1932     1   112.3500484 533.878400
   1928   1931   1942     1   112.3500484 533.878400
   1931   1932   1935     1   111.0400475 552.288000
   1931   1942   1945     1   111.0400475 552.288000
   1932   1931   1942     1   112.3500484 533.878400
   1932   1935   1938     1   111.0400475 529.694400
   1935   1938   1939     1   123.2000528 564.003200
   1935   1938   1940     1   112.7300484 572.371200
   1939   1938   1940     1   122.1000523 635.131200
   1942   1945   1948     1   111.0400475 529.694400
   1945   1948   1949     1   123.2000528 564.003200
   1945   1948   1950     1   112.7300484 572.371200
   1949   1948   1950     1   122.1000523 635.131200
   1953   1956   1959     1   111.5100476 526.347200
   1956   1959   1962     1   111.0400475 552.288000
   1956   1953   1983     1   107.9700462 569.024000
   1959   1962   1963     1   112.3500484 533.878400
   1959   1962   1973     1   112.3500484 533.878400
   1962   1963   1966     1   111.0400475 552.288000
   1962   1973   1976     1   111.0400475 552.288000
   1963   1966   1969     1   111.0400475 529.694400
   1963   1962   1973     1   112.3500484 533.878400
   1966   1969   1970     1   123.2000528 564.003200
   1966   1969   1971     1   112.7300484 572.371200
   1970   1969   1971     1   122.1000523 635.131200
   1973   1976   1979     1   111.0400475 529.694400
   1976   1979   1980     1   123.2000528 564.003200
   1976   1979   1981     1   112.7300484 572.371200
   1980   1979   1981     1   122.1000523 635.131200
   1984   1987   1990     1   111.5100476 526.347200
   1987   1984   2014     1   107.9700462 569.024000
   1987   1990   1993     1   111.0400475 552.288000
   1990   1993   1994     1   112.3500484 533.878400
   1990   1993   2004     1   112.3500484 533.878400
   1993   1994   1997     1   111.0400475 552.288000
   1993   2004   2007     1   111.0400475 552.288000
   1994   1993   2004     1   112.3500484 533.878400
   1994   1997   2000     1   111.0400475 529.694400
   1997   2000   2001     1   123.2000528 564.003200
   1997   2000   2002     1   112.7300484 572.371200
   2001   2000   2002     1   122.1000523 635.131200
   2004   2007   2010     1   111.0400475 529.694400
   2007   2010   2011     1   123.2000528 564.003200
   2007   2010   2012     1   112.7300484 572.371200
   2011   2010   2012     1   122.1000523 635.131200
   2015   2018   2021     1   111.5100476 526.347200
   2018   2021   2024     1   111.0400475 552.288000
   2018   2015   2045     1   107.9700462 569.024000
   2021   2024   2025     1   112.3500484 533.878400
   2021   2024   2035     1   112.3500484 533.878400
   2024   2025   2028     1   111.0400475 552.288000
   2024   2035   2038     1   111.0400475 552.288000
   2025   2028   2031     1   111.0400475 529.694400
   2025   2024   2035     1   112.3500484 533.878400
   2028   2031   2032     1   123.2000528 564.003200
   2028   2031   2033     1   112.7300484 572.371200
   2032   2031   2033     1   122.1000523 635.131200
   2035   2038   2041     1   111.0400475 529.694400
   2038   2041   2042     1   123.2000528 564.003200
   2038   2041   2043     1   112.7300484 572.371200
   2042   2041   2043     1   122.1000523 635.131200
   2046   2049   2052     1   111.5100476 526.347200
   2049   2046   2076     1   107.9700462 569.024000
   2049   2052   2055     1   111.0400475 552.288000
   2052   2055   2056     1   112.3500484 533.878400
   2052   2055   2066     1   112.3500484 533.878400
   2055   2056   2059     1   111.0400475 552.288000
   2055   2066   2069     1   111.0400475 552.288000
   2056   2055   2066     1   112.3500484 533.878400
   2056   2059   2062     1   111.0400475 529.694400
   2059   2062   2063     1   123.2000528 564.003200
   2059   2062   2064     1   112.7300484 572.371200
   2063   2062   2064     1   122.1000523 635.131200
   2066   2069   2072     1   111.0400475 529.694400
   2069   2072   2073     1   123.2000528 564.003200
   2069   2072   2074     1   112.7300484 572.371200
   2073   2072   2074     1   122.1000523 635.131200
   2077   2080   2083     1   111.5100476 526.347200
   2080   2083   2086     1   111.0400475 552.288000
   2080   2077   2107     1   107.9700462 569.024000
   2083   2086   2087     1   112.3500484 533.878400
   2083   2086   2097     1   112.3500484 533.878400
   2086   2087   2090     1   111.0400475 552.288000
   2086   2097   2100     1   111.0400475 552.288000
   2087   2090   2093     1   111.0400475 529.694400
   2087   2086   2097     1   112.3500484 533.878400
   2090   2093   2094     1   123.2000528 564.003200
   2090   2093   2095     1   112.7300484 572.371200
   2094   2093   2095     1   122.1000523 635.131200
   2097   2100   2103     1   111.0400475 529.694400
   2100   2103   2104     1   123.2000528 564.003200
   2100   2103   2105     1   112.7300484 572.371200
   2104   2103   2105     1   122.1000523 635.131200
   2108   2111   2114     1   111.5100476 526.347200
   2111   2108   2138     1   107.9700462 569.024000
   2111   2114   2117     1   111.0400475 552.288000
   2114   2117   2118     1   112.3500484 533.878400
   2114   2117   2128     1   112.3500484 533.878400
   2117   2118   2121     1   111.0400475 552.288000
   2117   2128   2131     1   111.0400475 552.288000
   2118   2117   2128     1   112.3500484 533.878400
   2118   2121   2124     1   111.0400475 529.694400
   2121   2124   2125     1   123.2000528 564.003200
   2121   2124   2126     1   112.7300484 572.371200
   2125   2124   2126     1   122.1000523 635.131200
   2128   2131   2134     1   111.0400475 529.694400
   2131   2134   2135     1   123.2000528 564.003200
   2131   2134   2136     1   112.7300484 572.371200
   2135   2134   2136     1   122.1000523 635.131200
   2139   2142   2145     1   111.5100476 526.347200
   2142   2145   2148     1   111.0400475 552.288000
   2142   2139   2169     1   107.9700462 569.024000
   2145   2148   2149     1   112.3500484 533.878400
   2145   2148   2159     1   112.3500484 533.878400
   2148   2149   2152     1   111.0400475 552.288000
   2148   2159   2162     1   111.0400475 552.288000
   2149   2152   2155     1   111.0400475 529.694400
   2149   2148   2159     1   112.3500484 533.878400
   2152   2155   2156     1   123.2000528 564.003200
   2152   2155   2157     1   112.7300484 572.371200
   2156   2155   2157     1   122.1000523 635.131200
   2159   2162   2165     1   111.0400475 529.694400
   2162   2165   2166     1   123.2000528 564.003200
   2162   2165   2167     1   112.7300484 572.371200
   2166   2165   2167     1   122.1000523 635.131200
   2170   2173   2176     1   111.5100476 526.347200
   2173   2170   2200     1   107.9700462 569.024000
   2173   2176   2179     1   111.0400475 552.288000
   2176   2179   2180     1   112.3500484 533.878400
   2176   2179   2190     1   112.3500484 533.878400
   2179   2180   2183     1   111.0400475 552.288000
   2179   2190   2193     1   111.0400475 552.288000
   2180   2179   2190     1   112.3500484 533.878400
   2180   2183   2186     1   111.0400475 529.694400
   2183   2186   2187     1   123.2000528 564.003200
   2183   2186   2188     1   112.7300484 572.371200
   2187   2186   2188     1   122.1000523 635.131200
   2190   2193   2196     1   111.0400475 529.694400
   2193   2196   2197     1   123.2000528 564.003200
   2193   2196   2198     1   112.7300484 572.371200
   2197   2196   2198     1   122.1000523 635.131200
   2201   2204   2207     1   111.5100476 526.347200
   2204   2207   2210     1   111.0400475 552.288000
   2204   2201   2231     1   107.9700462 569.024000
   2207   2210   2211     1   112.3500484 533.878400
   2207   2210   2221     1   112.3500484 533.878400
   2210   2211   2214     1   111.0400475 552.288000
   2210   2221   2224     1   111.0400475 552.288000
   2211   2214   2217     1   111.0400475 529.694400
   2211   2210   2221     1   112.3500484 533.878400
   2214   2217   2218     1   123.2000528 564.003200
   2214   2217   2219     1   112.7300484 572.371200
   2218   2217   2219     1   122.1000523 635.131200
   2221   2224   2227     1   111.0400475 529.694400
   2224   2227   2228     1   123.2000528 564.003200
   2224   2227   2229     1   112.7300484 572.371200
   2228   2227   2229     1   122.1000523 635.131200
   2232   2235   2238     1   111.5100476 526.347200
   2235   2232   2262     1   107.9700462 569.024000
   2235   2238   2241     1   111.0400475 552.288000
   2238   2241   2242     1   112.3500484 533.878400
   2238   2241   2252     1   112.3500484 533.878400
   2241   2242   2245     1   111.0400475 552.288000
   2241   2252   2255     1   111.0400475 552.288000
   2242   2241   2252     1   112.3500484 533.878400
   2242   2245   2248     1   111.0400475 529.694400
   2245   2248   2249     1   123.2000528 564.003200
   2245   2248   2250     1   112.7300484 572.371200
   2249   2248   2250     1   122.1000523 635.131200
   2252   2255   2258     1   111.0400475 529.694400
   2255   2258   2259     1   123.2000528 564.003200
   2255   2258   2260     1   112.7300484 572.371200
   2259   2258   2260     1   122.1000523 635.131200
   2263   2266   2269     1   111.5100476 526.347200
   2266   2269   2272     1   111.0400475 552.288000
   2266   2263   2293     1   107.9700462 569.024000
   2269   2272   2273     1   112.3500484 533.878400
   2269   2272   2283     1   112.3500484 533.878400
   2272   2273   2276     1   111.0400475 552.288000
   2272   2283   2286     1   111.0400475 552.288000
   2273   2276   2279     1   111.0400475 529.694400
   2273   2272   2283     1   112.3500484 533.878400
   2276   2279   2280     1   123.2000528 564.003200
   2276   2279   2281     1   112.7300484 572.371200
   2280   2279   2281     1   122.1000523 635.131200
   2283   2286   2289     1   111.0400475 529.694400
   2286   2289   2290     1   123.2000528 564.003200
   2286   2289   2291     1   112.7300484 572.371200
   2290   2289   2291     1   122.1000523 635.131200
   2294   2297   2300     1   111.5100476 526.347200
   2297   2294   2324     1   107.9700462 569.024000
   2297   2300   2303     1   111.0400475 552.288000
   2300   2303   2304     1   112.3500484 533.878400
   2300   2303   2314     1   112.3500484 533.878400
   2303   2304   2307     1   111.0400475 552.288000
   2303   2314   2317     1   111.0400475 552.288000
   2304   2303   2314     1   112.3500484 533.878400
   2304   2307   2310     1   111.0400475 529.694400
   2307   2310   2311     1   123.2000528 564.003200
   2307   2310   2312     1   112.7300484 572.371200
   2311   2310   2312     1   122.1000523 635.131200
   2314   2317   2320     1   111.0400475 529.694400
   2317   2320   2321     1   123.2000528 564.003200
   2317   2320   2322     1   112.7300484 572.371200
   2321   2320   2322     1   122.1000523 635.131200
   2325   2328   2331     1   111.5100476 526.347200
   2328   2331   2334     1   111.0400475 552.288000
   2328   2325   2355     1   107.9700462 569.024000
   2331   2334   2335     1   112.3500484 533.878400
   2331   2334   2345     1   112.3500484 533.878400
   2334   2335   2338     1   111.0400475 552.288000
   2334   2345   2348     1   111.0400475 552.288000
   2335   2338   2341     1   111.0400475 529.694400
   2335   2334   2345     1   112.3500484 533.878400
   2338   2341   2342     1   123.2000528 564.003200
   2338   2341   2343     1   112.7300484 572.371200
   2342   2341   2343     1   122.1000523 635.131200
   2345   2348   2351     1   111.0400475 529.694400
   2348   2351   2352     1   123.2000528 564.003200
   2348   2351   2353     1   112.7300484 572.371200
   2352   2351   2353     1   122.1000523 635.131200
   2356   2359   2362     1   111.5100476 526.347200
   2359   2356   2386     1   107.9700462 569.024000
   2359   2362   2365     1   111.0400475 552.288000
   2362   2365   2366     1   112.3500484 533.878400
   2362   2365   2376     1   112.3500484 533.878400
   2365   2366   2369     1   111.0400475 552.288000
   2365   2376   2379     1   111.0400475 552.288000
   2366   2365   2376     1   112.3500484 533.878400
   2366   2369   2372     1   111.0400475 529.694400
   2369   2372   2373     1   123.2000528 564.003200
   2369   2372   2374     1   112.7300484 572.371200
   2373   2372   2374     1   122.1000523 635.131200
   2376   2379   2382     1   111.0400475 529.694400
   2379   2382   2383     1   123.2000528 564.003200
   2379   2382   2384     1   112.7300484 572.371200
   2383   2382   2384     1   122.1000523 635.131200
   2387   2390   2393     1   111.5100476 526.347200
   2390   2393   2396     1   111.0400475 552.288000
   2390   2387   2417     1   107.9700462 569.024000
   2393   2396   2397     1   112.3500484 533.878400
   2393   2396   2407     1   112.3500484 533.878400
   2396   2397   2400     1   111.0400475 552.288000
   2396   2407   2410     1   111.0400475 552.288000
   2397   2400   2403     1   111.0400475 529.694400
   2397   2396   2407     1   112.3500484 533.878400
   2400   2403   2404     1   123.2000528 564.003200
   2400   2403   2405     1   112.7300484 572.371200
   2404   2403   2405     1   122.1000523 635.131200
   2407   2410   2413     1   111.0400475 529.694400
   2410   2413   2414     1   123.2000528 564.003200
   2410   2413   2415     1   112.7300484 572.371200
   2414   2413   2415     1   122.1000523 635.131200
   2418   2421   2424     1   111.5100476 526.347200
   2421   2418   2448     1   107.9700462 569.024000
   2421   2424   2427     1   111.0400475 552.288000
   2424   2427   2428     1   112.3500484 533.878400
   2424   2427   2438     1   112.3500484 533.878400
   2427   2428   2431     1   111.0400475 552.288000
   2427   2438   2441     1   111.0400475 552.288000
   2428   2427   2438     1   112.3500484 533.878400
   2428   2431   2434     1   111.0400475 529.694400
   2431   2434   2435     1   123.2000528 564.003200
   2431   2434   2436     1   112.7300484 572.371200
   2435   2434   2436     1   122.1000523 635.131200
   2438   2441   2444     1   111.0400475 529.694400
   2441   2444   2445     1   123.2000528 564.003200
   2441   2444   2446     1   112.7300484 572.371200
   2445   2444   2446     1   122.1000523 635.131200
   2449   2452   2455     1   111.5100476 526.347200
   2452   2455   2458     1   111.0400475 552.288000
   2452   2449   2479     1   107.9700462 569.024000
   2455   2458   2459     1   112.3500484 533.878400
   2455   2458   2469     1   112.3500484 533.878400
   2458   2459   2462     1   111.0400475 552.288000
   2458   2469   2472     1   111.0400475 552.288000
   2459   2462   2465     1   111.0400475 529.694400
   2459   2458   2469     1   112.3500484 533.878400
   2462   2465   2466     1   123.2000528 564.003200
   2462   2465   2467     1   112.7300484 572.371200
   2466   2465   2467     1   122.1000523 635.131200
   2469   2472   2475     1   111.0400475 529.694400
   2472   2475   2476     1   123.2000528 564.003200
   2472   2475   2477     1   112.7300484 572.371200
   2476   2475   2477     1   122.1000523 635.131200
   2480   2483   2486     1   111.5100476 526.347200
   2483   2480   2510     1   107.9700462 569.024000
   2483   2486   2489     1   111.0400475 552.288000
   2486   2489   2490     1   112.3500484 533.878400
   2486   2489   2500     1   112.3500484 533.878400
   2489   2490   2493     1   111.0400475 552.288000
   2489   2500   2503     1   111.0400475 552.288000
   2490   2489   2500     1   112.3500484 533.878400
   2490   2493   2496     1   111.0400475 529.694400
   2493   2496   2497     1   123.2000528 564.003200
   2493   2496   2498     1   112.7300484 572.371200
   2497   2496   2498     1   122.1000523 635.131200
   2500   2503   2506     1   111.0400475 529.694400
   2503   2506   2507     1   123.2000528 564.003200
   2503   2506   2508     1   112.7300484 572.371200
   2507   2506   2508     1   122.1000523 635.131200
   2511   2514   2517     1   111.5100476 526.347200
   2514   2517   2520     1   111.0400475 552.288000
   2514   2511   2541     1   107.9700462 569.024000
   2517   2520   2521     1   112.3500484 533.878400
   2517   2520   2531     1   112.3500484 533.878400
   2520   2521   2524     1   111.0400475 552.288000
   2520   2531   2534     1   111.0400475 552.288000
   2521   2524   2527     1   111.0400475 529.694400
   2521   2520   2531     1   112.3500484 533.878400
   2524   2527   2528     1   123.2000528 564.003200
   2524   2527   2529     1   112.7300484 572.371200
   2528   2527   2529     1   122.1000523 635.131200
   2531   2534   2537     1   111.0400475 529.694400
   2534   2537   2538     1   123.2000528 564.003200
   2534   2537   2539     1   112.7300484 572.371200
   2538   2537   2539     1   122.1000523 635.131200
   2542   2545   2548     1   111.5100476 526.347200
   2545   2542   2572     1   107.9700462 569.024000
   2545   2548   2551     1   111.0400475 552.288000
   2548   2551   2552     1   112.3500484 533.878400
   2548   2551   2562     1   112.3500484 533.878400
   2551   2552   2555     1   111.0400475 552.288000
   2551   2562   2565     1   111.0400475 552.288000
   2552   2551   2562     1   112.3500484 533.878400
   2552   2555   2558     1   111.0400475 529.694400
   2555   2558   2559     1   123.2000528 564.003200
   2555   2558   2560     1   112.7300484 572.371200
   2559   2558   2560     1   122.1000523 635.131200
   2562   2565   2568     1   111.0400475 529.694400
   2565   2568   2569     1   123.2000528 564.003200
   2565   2568   2570     1   112.7300484 572.371200
   2569   2568   2570     1   122.1000523 635.131200
   2573   2576   2579     1   111.5100476 526.347200
   2576   2579   2582     1   111.0400475 552.288000
   2576   2573   2603     1   107.9700462 569.024000
   2579   2582   2583     1   112.3500484 533.878400
   2579   2582   2593     1   112.3500484 533.878400
   2582   2583   2586     1   111.0400475 552.288000
   2582   2593   2596     1   111.0400475 552.288000
   2583   2586   2589     1   111.0400475 529.694400
   2583   2582   2593     1   112.3500484 533.878400
   2586   2589   2590     1   123.2000528 564.003200
   2586   2589   2591     1   112.7300484 572.371200
   2590   2589   2591     1   122.1000523 635.131200
   2593   2596   2599     1   111.0400475 529.694400
   2596   2599   2600     1   123.2000528 564.003200
   2596   2599   2601     1   112.7300484 572.371200
   2600   2599   2601     1   122.1000523 635.131200
   2604   2607   2610     1   111.5100476 526.347200
   2607   2604   2634     1   107.9700462 569.024000
   2607   2610   2613     1   111.0400475 552.288000
   2610   2613   2614     1   112.3500484 533.878400
   2610   2613   2624     1   112.3500484 533.878400
   2613   2614   2617     1   111.0400475 552.288000
   2613   2624   2627     1   111.0400475 552.288000
   2614   2613   2624     1   112.3500484 533.878400
   2614   2617   2620     1   111.0400475 529.694400
   2617   2620   2621     1   123.2000528 564.003200
   2617   2620   2622     1   112.7300484 572.371200
   2621   2620   2622     1   122.1000523 635.131200
   2624   2627   2630     1   111.0400475 529.694400
   2627   2630   2631     1   123.2000528 564.003200
   2627   2630   2632     1   112.7300484 572.371200
   2631   2630   2632     1   122.1000523 635.131200
   2635   2638   2641     1   111.5100476 526.347200
   2638   2641   2644     1   111.0400475 552.288000
   2638   2635   2665     1   107.9700462 569.024000
   2641   2644   2645     1   112.3500484 533.878400
   2641   2644   2655     1   112.3500484 533.878400
   2644   2645   2648     1   111.0400475 552.288000
   2644   2655   2658     1   111.0400475 552.288000
   2645   2648   2651     1   111.0400475 529.694400
   2645   2644   2655     1   112.3500484 533.878400
   2648   2651   2652     1   123.2000528 564.003200
   2648   2651   2653     1   112.7300484 572.371200
   2652   2651   2653     1   122.1000523 635.131200
   2655   2658   2661     1   111.0400475 529.694400
   2658   2661   2662     1   123.2000528 564.003200
   2658   2661   2663     1   112.7300484 572.371200
   2662   2661   2663     1   122.1000523 635.131200
   2666   2669   2672     1   111.5100476 526.347200
   2669   2666   2696     1   107.9700462 569.024000
   2669   2672   2675     1   111.0400475 552.288000
   2672   2675   2676     1   112.3500484 533.878400
   2672   2675   2686     1   112.3500484 533.878400
   2675   2676   2679     1   111.0400475 552.288000
   2675   2686   2689     1   111.0400475 552.288000
   2676   2675   2686     1   112.3500484 533.878400
   2676   2679   2682     1   111.0400475 529.694400
   2679   2682   2683     1   123.2000528 564.003200
   2679   2682   2684     1   112.7300484 572.371200
   2683   2682   2684     1   122.1000523 635.131200
   2686   2689   2692     1   111.0400475 529.694400
   2689   2692   2693     1   123.2000528 564.003200
   2689   2692   2694     1   112.7300484 572.371200
   2693   2692   2694     1   122.1000523 635.131200
   2697   2700   2703     1   111.5100476 526.347200
   2700   2703   2706     1   111.0400475 552.288000
   2700   2697   2727     1   107.9700462 569.024000
   2703   2706   2707     1   112.3500484 533.878400
   2703   2706   2717     1   112.3500484 533.878400
   2706   2707   2710     1   111.0400475 552.288000
   2706   2717   2720     1   111.0400475 552.288000
   2707   2710   2713     1   111.0400475 529.694400
   2707   2706   2717     1   112.3500484 533.878400
   2710   2713   2714     1   123.2000528 564.003200
   2710   2713   2715     1   112.7300484 572.371200
   2714   2713   2715     1   122.1000523 635.131200
   2717   2720   2723     1   111.0400475 529.694400
   2720   2723   2724     1   123.2000528 564.003200
   2720   2723   2725     1   112.7300484 572.371200
   2724   2723   2725     1   122.1000523 635.131200
   2728   2731   2734     1   111.5100476 526.347200
   2731   2728   2758     1   107.9700462 569.024000
   2731   2734   2737     1   111.0400475 552.288000
   2734   2737   2738     1   112.3500484 533.878400
   2734   2737   2748     1   112.3500484 533.878400
   2737   2738   2741     1   111.0400475 552.288000
   2737   2748   2751     1   111.0400475 552.288000
   2738   2737   2748     1   112.3500484 533.878400
   2738   2741   2744     1   111.0400475 529.694400
   2741   2744   2745     1   123.2000528 564.003200
   2741   2744   2746     1   112.7300484 572.371200
   2745   2744   2746     1   122.1000523 635.131200
   2748   2751   2754     1   111.0400475 529.694400
   2751   2754   2755     1   123.2000528 564.003200
   2751   2754   2756     1   112.7300484 572.371200
   2755   2754   2756     1   122.1000523 635.131200
   2759   2762   2765     1   111.5100476 526.347200
   2762   2765   2768     1   111.0400475 552.288000
   2762   2759   2789     1   107.9700462 569.024000
   2765   2768   2769     1   112.3500484 533.878400
   2765   2768   2779     1   112.3500484 533.878400
   2768   2769   2772     1   111.0400475 552.288000
   2768   2779   2782     1   111.0400475 552.288000
   2769   2772   2775     1   111.0400475 529.694400
   2769   2768   2779     1   112.3500484 533.878400
   2772   2775   2776     1   123.2000528 564.003200
   2772   2775   2777     1   112.7300484 572.371200
   2776   2775   2777     1   122.1000523 635.131200
   2779   2782   2785     1   111.0400475 529.694400
   2782   2785   2786     1   123.2000528 564.003200
   2782   2785   2787     1   112.7300484 572.371200
   2786   2785   2787     1   122.1000523 635.131200
   2790   2793   2796     1   111.5100476 526.347200
   2793   2790   2820     1   107.9700462 569.024000
   2793   2796   2799     1   111.0400475 552.288000
   2796   2799   2800     1   112.3500484 533.878400
   2796   2799   2810     1   112.3500484 533.878400
   2799   2800   2803     1   111.0400475 552.288000
   2799   2810   2813     1   111.0400475 552.288000
   2800   2799   2810     1   112.3500484 533.878400
   2800   2803   2806     1   111.0400475 529.694400
   2803   2806   2807     1   123.2000528 564.003200
   2803   2806   2808     1   112.7300484 572.371200
   2807   2806   2808     1   122.1000523 635.131200
   2810   2813   2816     1   111.0400475 529.694400
   2813   2816   2817     1   123.2000528 564.003200
   2813   2816   2818     1   112.7300484 572.371200
   2817   2816   2818     1   122.1000523 635.131200
   2821   2824   2827     1   111.5100476 526.347200
   2824   2827   2830     1   111.0400475 552.288000
   2824   2821   2851     1   107.9700462 569.024000
   2827   2830   2831     1   112.3500484 533.878400
   2827   2830   2841     1   112.3500484 533.878400
   2830   2831   2834     1   111.0400475 552.288000
   2830   2841   2844     1   111.0400475 552.288000
   2831   2834   2837     1   111.0400475 529.694400
   2831   2830   2841     1   112.3500484 533.878400
   2834   2837   2838     1   123.2000528 564.003200
   2834   2837   2839     1   112.7300484 572.371200
   2838   2837   2839     1   122.1000523 635.131200
   2841   2844   2847     1   111.0400475 529.694400
   2844   2847   2848     1   123.2000528 564.003200
   2844   2847   2849     1   112.7300484 572.371200
   2848   2847   2849     1   122.1000523 635.131200
   2852   2855   2858     1   111.5100476 526.347200
   2855   2852   2882     1   107.9700462 569.024000
   2855   2858   2861     1   111.0400475 552.288000
   2858   2861   2862     1   112.3500484 533.878400
   2858   2861   2872     1   112.3500484 533.878400
   2861   2862   2865     1   111.0400475 552.288000
   2861   2872   2875     1   111.0400475 552.288000
   2862   2861   2872     1   112.3500484 533.878400
   2862   2865   2868     1   111.0400475 529.694400
   2865   2868   2869     1   123.2000528 564.003200
   2865   2868   2870     1   112.7300484 572.371200
   2869   2868   2870     1   122.1000523 635.131200
   2872   2875   2878     1   111.0400475 529.694400
   2875   2878   2879     1   123.2000528 564.003200
   2875   2878   2880     1   112.7300484 572.371200
   2879   2878   2880     1   122.1000523 635.131200
   2883   2886   2889     1   111.5100476 526.347200
   2886   2889   2892     1   111.0400475 552.288000
   2886   2883   2913     1   107.9700462 569.024000
   2889   2892   2893     1   112.3500484 533.878400
   2889   2892   2903     1   112.3500484 533.878400
   2892   2893   2896     1   111.0400475 552.288000
   2892   2903   2906     1   111.0400475 552.288000
   2893   2896   2899     1   111.0400475 529.694400
   2893   2892   2903     1   112.3500484 533.878400
   2896   2899   2900     1   123.2000528 564.003200
   2896   2899   2901     1   112.7300484 572.371200
   2900   2899   2901     1   122.1000523 635.131200
   2903   2906   2909     1   111.0400475 529.694400
   2906   2909   2910     1   123.2000528 564.003200
   2906   2909   2911     1   112.7300484 572.371200
   2910   2909   2911     1   122.1000523 635.131200
   2914   2917   2920     1   111.5100476 526.347200
   2917   2914   2944     1   107.9700462 569.024000
   2917   2920   2923     1   111.0400475 552.288000
   2920   2923   2924     1   112.3500484 533.878400
   2920   2923   2934     1   112.3500484 533.878400
   2923   2924   2927     1   111.0400475 552.288000
   2923   2934   2937     1   111.0400475 552.288000
   2924   2923   2934     1   112.3500484 533.878400
   2924   2927   2930     1   111.0400475 529.694400
   2927   2930   2931     1   123.2000528 564.003200
   2927   2930   2932     1   112.7300484 572.371200
   2931   2930   2932     1   122.1000523 635.131200
   2934   2937   2940     1   111.0400475 529.694400
   2937   2940   2941     1   123.2000528 564.003200
   2937   2940   2942     1   112.7300484 572.371200
   2941   2940   2942     1   122.1000523 635.131200
   2945   2948   2951     1   111.5100476 526.347200
   2948   2951   2954     1   111.0400475 552.288000
   2948   2945   2975     1   107.9700462 569.024000
   2951   2954   2955     1   112.3500484 533.878400
   2951   2954   2965     1   112.3500484 533.878400
   2954   2955   2958     1   111.0400475 552.288000
   2954   2965   2968     1   111.0400475 552.288000
   2955   2958   2961     1   111.0400475 529.694400
   2955   2954   2965     1   112.3500484 533.878400
   2958   2961   2962     1   123.2000528 564.003200
   2958   2961   2963     1   112.7300484 572.371200
   2962   2961   2963     1   122.1000523 635.131200
   2965   2968   2971     1   111.0400475 529.694400
   2968   2971   2972     1   123.2000528 564.003200
   2968   2971   2973     1   112.7300484 572.371200
   2972   2971   2973     1   122.1000523 635.131200
   2976   2979   2982     1   111.5100476 526.347200
   2979   2976   3006     1   107.9700462 569.024000
   2979   2982   2985     1   111.0400475 552.288000
   2982   2985   2986     1   112.3500484 533.878400
   2982   2985   2996     1   112.3500484 533.878400
   2985   2986   2989     1   111.0400475 552.288000
   2985   2996   2999     1   111.0400475 552.288000
   2986   2985   2996     1   112.3500484 533.878400
   2986   2989   2992     1   111.0400475 529.694400
   2989   2992   2993     1   123.2000528 564.003200
   2989   2992   2994     1   112.7300484 572.371200
   2993   2992   2994     1   122.1000523 635.131200
   2996   2999   3002     1   111.0400475 529.694400
   2999   3002   3003     1   123.2000528 564.003200
   2999   3002   3004     1   112.7300484 572.371200
   3003   3002   3004     1   122.1000523 635.131200
   3007   3010   3013     1   111.5100476 526.347200
   3010   3013   3016     1   111.0400475 552.288000
   3010   3007   3037     1   107.9700462 569.024000
   3013   3016   3017     1   112.3500484 533.878400
   3013   3016   3027     1   112.3500484 533.878400
   3016   3017   3020     1   111.0400475 552.288000
   3016   3027   3030     1   111.0400475 552.288000
   3017   3020   3023     1   111.0400475 529.694400
   3017   3016   3027     1   112.3500484 533.878400
   3020   3023   3024     1   123.2000528 564.003200
   3020   3023   3025     1   112.7300484 572.371200
   3024   3023   3025     1   122.1000523 635.131200
   3027   3030   3033     1   111.0400475 529.694400
   3030   3033   3034     1   123.2000528 564.003200
   3030   3033   3035     1   112.7300484 572.371200
   3034   3033   3035     1   122.1000523 635.131200
   3038   3041   3044     1   111.5100476 526.347200
   3041   3038   3068     1   107.9700462 569.024000
   3041   3044   3047     1   111.0400475 552.288000
   3044   3047   3048     1   112.3500484 533.878400
   3044   3047   3058     1   112.3500484 533.878400
   3047   3048   3051     1   111.0400475 552.288000
   3047   3058   3061     1   111.0400475 552.288000
   3048   3047   3058     1   112.3500484 533.878400
   3048   3051   3054     1   111.0400475 529.694400
   3051   3054   3055     1   123.2000528 564.003200
   3051   3054   3056     1   112.7300484 572.371200
   3055   3054   3056     1   122.1000523 635.131200
   3058   3061   3064     1   111.0400475 529.694400
   3061   3064   3065     1   123.2000528 564.003200
   3061   3064   3066     1   112.7300484 572.371200
   3065   3064   3066     1   122.1000523 635.131200
   3069   3072   3075     1   111.5100476 526.347200
   3072   3075   3078     1   111.0400475 552.288000
   3072   3069   3099     1   107.9700462 569.024000
   3075   3078   3079     1   112.3500484 533.878400
   3075   3078   3089     1   112.3500484 533.878400
   3078   3079   3082     1   111.0400475 552.288000
   3078   3089   3092     1   111.0400475 552.288000
   3079   3082   3085     1   111.0400475 529.694400
   3079   3078   3089     1   112.3500484 533.878400
   3082   3085   3086     1   123.2000528 564.003200
   3082   3085   3087     1   112.7300484 572.371200
   3086   3085   3087     1   122.1000523 635.131200
   3089   3092   3095     1   111.0400475 529.694400
   3092   3095   3096     1   123.2000528 564.003200
   3092   3095   3097     1   112.7300484 572.371200
   3096   3095   3097     1   122.1000523 635.131200
   3100   3103   3106     1   111.5100476 526.347200
   3103   3100   3130     1   107.9700462 569.024000
   3103   3106   3109     1   111.0400475 552.288000
   3106   3109   3110     1   112.3500484 533.878400
   3106   3109   3120     1   112.3500484 533.878400
   3109   3110   3113     1   111.0400475 552.288000
   3109   3120   3123     1   111.0400475 552.288000
   3110   3109   3120     1   112.3500484 533.878400
   3110   3113   3116     1   111.0400475 529.694400
   3113   3116   3117     1   123.2000528 564.003200
   3113   3116   3118     1   112.7300484 572.371200
   3117   3116   3118     1   122.1000523 635.131200
   3120   3123   3126     1   111.0400475 529.694400
   3123   3126   3127     1   123.2000528 564.003200
   3123   3126   3128     1   112.7300484 572.371200
   3127   3126   3128     1   122.1000523 635.131200
   3131   3134   3137     1   111.5100476 526.347200
   3134   3137   3140     1   111.0400475 552.288000
   3134   3131   3161     1   107.9700462 569.024000
   3137   3140   3141     1   112.3500484 533.878400
   3137   3140   3151     1   112.3500484 533.878400
   3140   3141   3144     1   111.0400475 552.288000
   3140   3151   3154     1   111.0400475 552.288000
   3141   3144   3147     1   111.0400475 529.694400
   3141   3140   3151     1   112.3500484 533.878400
   3144   3147   3148     1   123.2000528 564.003200
   3144   3147   3149     1   112.7300484 572.371200
   3148   3147   3149     1   122.1000523 635.131200
   3151   3154   3157     1   111.0400475 529.694400
   3154   3157   3158     1   123.2000528 564.003200
   3154   3157   3159     1   112.7300484 572.371200
   3158   3157   3159     1   122.1000523 635.131200
   3162   3165   3168     1   111.5100476 526.347200
   3165   3162   3192     1   107.9700462 569.024000
   3165   3168   3171     1   111.0400475 552.288000
   3168   3171   3172     1   112.3500484 533.878400
   3168   3171   3182     1   112.3500484 533.878400
   3171   3172   3175     1   111.0400475 552.288000
   3171   3182   3185     1   111.0400475 552.288000
   3172   3171   3182     1   112.3500484 533.878400
   3172   3175   3178     1   111.0400475 529.694400
   3175   3178   3179     1   123.2000528 564.003200
   3175   3178   3180     1   112.7300484 572.371200
   3179   3178   3180     1   122.1000523 635.131200
   3182   3185   3188     1   111.0400475 529.694400
   3185   3188   3189     1   123.2000528 564.003200
   3185   3188   3190     1   112.7300484 572.371200
   3189   3188   3190     1   122.1000523 635.131200
   3193   3196   3199     1   111.5100476 526.347200
   3196   3199   3202     1   111.0400475 552.288000
   3196   3193   3223     1   107.9700462 569.024000
   3199   3202   3203     1   112.3500484 533.878400
   3199   3202   3213     1   112.3500484 533.878400
   3202   3203   3206     1   111.0400475 552.288000
   3202   3213   3216     1   111.0400475 552.288000
   3203   3206   3209     1   111.0400475 529.694400
   3203   3202   3213     1   112.3500484 533.878400
   3206   3209   3210     1   123.2000528 564.003200
   3206   3209   3211     1   112.7300484 572.371200
   3210   3209   3211     1   122.1000523 635.131200
   3213   3216   3219     1   111.0400475 529.694400
   3216   3219   3220     1   123.2000528 564.003200
   3216   3219   3221     1   112.7300484 572.371200
   3220   3219   3221     1   122.1000523 635.131200
   3224   3227   3230     1   111.5100476 526.347200
   3227   3224   3254     1   107.9700462 569.024000
   3227   3230   3233     1   111.0400475 552.288000
   3230   3233   3234     1   112.3500484 533.878400
   3230   3233   3244     1   112.3500484 533.878400
   3233   3234   3237     1   111.0400475 552.288000
   3233   3244   3247     1   111.0400475 552.288000
   3234   3233   3244     1   112.3500484 533.878400
   3234   3237   3240     1   111.0400475 529.694400
   3237   3240   3241     1   123.2000528 564.003200
   3237   3240   3242     1   112.7300484 572.371200
   3241   3240   3242     1   122.1000523 635.131200
   3244   3247   3250     1   111.0400475 529.694400
   3247   3250   3251     1   123.2000528 564.003200
   3247   3250   3252     1   112.7300484 572.371200
   3251   3250   3252     1   122.1000523 635.131200
   3255   3258   3261     1   111.5100476 526.347200
   3258   3261   3264     1   111.0400475 552.288000
   3258   3255   3285     1   107.9700462 569.024000
   3261   3264   3265     1   112.3500484 533.878400
   3261   3264   3275     1   112.3500484 533.878400
   3264   3265   3268     1   111.0400475 552.288000
   3264   3275   3278     1   111.0400475 552.288000
   3265   3268   3271     1   111.0400475 529.694400
   3265   3264   3275     1   112.3500484 533.878400
   3268   3271   3272     1   123.2000528 564.003200
   3268   3271   3273     1   112.7300484 572.371200
   3272   3271   3273     1   122.1000523 635.131200
   3275   3278   3281     1   111.0400475 529.694400
   3278   3281   3282     1   123.2000528 564.003200
   3278   3281   3283     1   112.7300484 572.371200
   3282   3281   3283     1   122.1000523 635.131200
   3286   3289   3292     1   111.5100476 526.347200
   3289   3286   3316     1   107.9700462 569.024000
   3289   3292   3295     1   111.0400475 552.288000
   3292   3295   3296     1   112.3500484 533.878400
   3292   3295   3306     1   112.3500484 533.878400
   3295   3296   3299     1   111.0400475 552.288000
   3295   3306   3309     1   111.0400475 552.288000
   3296   3295   3306     1   112.3500484 533.878400
   3296   3299   3302     1   111.0400475 529.694400
   3299   3302   3303     1   123.2000528 564.003200
   3299   3302   3304     1   112.7300484 572.371200
   3303   3302   3304     1   122.1000523 635.131200
   3306   3309   3312     1   111.0400475 529.694400
   3309   3312   3313     1   123.2000528 564.003200
   3309   3312   3314     1   112.7300484 572.371200
   3313   3312   3314     1   122.1000523 635.131200
   3317   3320   3323     1   111.5100476 526.347200
   3320   3323   3326     1   111.0400475 552.288000
   3320   3317   3347     1   107.9700462 569.024000
   3323   3326   3327     1   112.3500484 533.878400
   3323   3326   3337     1   112.3500484 533.878400
   3326   3327   3330     1   111.0400475 552.288000
   3326   3337   3340     1   111.0400475 552.288000
   3327   3330   3333     1   111.0400475 529.694400
   3327   3326   3337     1   112.3500484 533.878400
   3330   3333   3334     1   123.2000528 564.003200
   3330   3333   3335     1   112.7300484 572.371200
   3334   3333   3335     1   122.1000523 635.131200
   3337   3340   3343     1   111.0400475 529.694400
   3340   3343   3344     1   123.2000528 564.003200
   3340   3343   3345     1   112.7300484 572.371200
   3344   3343   3345     1   122.1000523 635.131200
   3348   3351   3354     1   111.5100476 526.347200
   3351   3348   3378     1   107.9700462 569.024000
   3351   3354   3357     1   111.0400475 552.288000
   3354   3357   3358     1   112.3500484 533.878400
   3354   3357   3368     1   112.3500484 533.878400
   3357   3358   3361     1   111.0400475 552.288000
   3357   3368   3371     1   111.0400475 552.288000
   3358   3357   3368     1   112.3500484 533.878400
   3358   3361   3364     1   111.0400475 529.694400
   3361   3364   3365     1   123.2000528 564.003200
   3361   3364   3366     1   112.7300484 572.371200
   3365   3364   3366     1   122.1000523 635.131200
   3368   3371   3374     1   111.0400475 529.694400
   3371   3374   3375     1   123.2000528 564.003200
   3371   3374   3376     1   112.7300484 572.371200
   3375   3374   3376     1   122.1000523 635.131200
   3379   3382   3385     1   111.5100476 526.347200
   3382   3385   3388     1   111.0400475 552.288000
   3382   3379   3409     1   107.9700462 569.024000
   3385   3388   3389     1   112.3500484 533.878400
   3385   3388   3399     1   112.3500484 533.878400
   3388   3389   3392     1   111.0400475 552.288000
   3388   3399   3402     1   111.0400475 552.288000
   3389   3392   3395     1   111.0400475 529.694400
   3389   3388   3399     1   112.3500484 533.878400
   3392   3395   3396     1   123.2000528 564.003200
   3392   3395   3397     1   112.7300484 572.371200
   3396   3395   3397     1   122.1000523 635.131200
   3399   3402   3405     1   111.0400475 529.694400
   3402   3405   3406     1   123.2000528 564.003200
   3402   3405   3407     1   112.7300484 572.371200
   3406   3405   3407     1   122.1000523 635.131200
   3410   3413   3416     1   111.5100476 526.347200
   3413   3410   3440     1   107.9700462 569.024000
   3413   3416   3419     1   111.0400475 552.288000
   3416   3419   3420     1   112.3500484 533.878400
   3416   3419   3430     1   112.3500484 533.878400
   3419   3420   3423     1   111.0400475 552.288000
   3419   3430   3433     1   111.0400475 552.288000
   3420   3419   3430     1   112.3500484 533.878400
   3420   3423   3426     1   111.0400475 529.694400
   3423   3426   3427     1   123.2000528 564.003200
   3423   3426   3428     1   112.7300484 572.371200
   3427   3426   3428     1   122.1000523 635.131200
   3430   3433   3436     1   111.0400475 529.694400
   3433   3436   3437     1   123.2000528 564.003200
   3433   3436   3438     1   112.7300484 572.371200
   3437   3436   3438     1   122.1000523 635.131200
   3441   3444   3447     1   111.5100476 526.347200
   3444   3447   3450     1   111.0400475 552.288000
   3444   3441   3471     1   107.9700462 569.024000
   3447   3450   3451     1   112.3500484 533.878400
   3447   3450   3461     1   112.3500484 533.878400
   3450   3451   3454     1   111.0400475 552.288000
   3450   3461   3464     1   111.0400475 552.288000
   3451   3454   3457     1   111.0400475 529.694400
   3451   3450   3461     1   112.3500484 533.878400
   3454   3457   3458     1   123.2000528 564.003200
   3454   3457   3459     1   112.7300484 572.371200
   3458   3457   3459     1   122.1000523 635.131200
   3461   3464   3467     1   111.0400475 529.694400
   3464   3467   3468     1   123.2000528 564.003200
   3464   3467   3469     1   112.7300484 572.371200
   3468   3467   3469     1   122.1000523 635.131200
   3472   3475   3478     1   111.5100476 526.347200
   3475   3472   3502     1   107.9700462 569.024000
   3475   3478   3481     1   111.0400475 552.288000
   3478   3481   3482     1   112.3500484 533.878400
   3478   3481   3492     1   112.3500484 533.878400
   3481   3482   3485     1   111.0400475 552.288000
   3481   3492   3495     1   111.0400475 552.288000
   3482   3481   3492     1   112.3500484 533.878400
   3482   3485   3488     1   111.0400475 529.694400
   3485   3488   3489     1   123.2000528 564.003200
   3485   3488   3490     1   112.7300484 572.371200
   3489   3488   3490     1   122.1000523 635.131200
   3492   3495   3498     1   111.0400475 529.694400
   3495   3498   3499     1   123.2000528 564.003200
   3495   3498   3500     1   112.7300484 572.371200
   3499   3498   3500     1   122.1000523 635.131200
   3503   3506   3509     1   111.5100476 526.347200
   3506   3509   3512     1   111.0400475 552.288000
   3506   3503   3533     1   107.9700462 569.024000
   3509   3512   3513     1   112.3500484 533.878400
   3509   3512   3523     1   112.3500484 533.878400
   3512   3513   3516     1   111.0400475 552.288000
   3512   3523   3526     1   111.0400475 552.288000
   3513   3516   3519     1   111.0400475 529.694400
   3513   3512   3523     1   112.3500484 533.878400
   3516   3519   3520     1   123.2000528 564.003200
   3516   3519   3521     1   112.7300484 572.371200
   3520   3519   3521     1   122.1000523 635.131200
   3523   3526   3529     1   111.0400475 529.694400
   3526   3529   3530     1   123.2000528 564.003200
   3526   3529   3531     1   112.7300484 572.371200
   3530   3529   3531     1   122.1000523 635.131200
   3534   3537   3540     1   111.5100476 526.347200
   3537   3534   3564     1   107.9700462 569.024000
   3537   3540   3543     1   111.0400475 552.288000
   3540   3543   3544     1   112.3500484 533.878400
   3540   3543   3554     1   112.3500484 533.878400
   3543   3544   3547     1   111.0400475 552.288000
   3543   3554   3557     1   111.0400475 552.288000
   3544   3543   3554     1   112.3500484 533.878400
   3544   3547   3550     1   111.0400475 529.694400
   3547   3550   3551     1   123.2000528 564.003200
   3547   3550   3552     1   112.7300484 572.371200
   3551   3550   3552     1   122.1000523 635.131200
   3554   3557   3560     1   111.0400475 529.694400
   3557   3560   3561     1   123.2000528 564.003200
   3557   3560   3562     1   112.7300484 572.371200
   3561   3560   3562     1   122.1000523 635.131200
   3565   3568   3571     1   111.5100476 526.347200
   3568   3571   3574     1   111.0400475 552.288000
   3568   3565   3595     1   107.9700462 569.024000
   3571   3574   3575     1   112.3500484 533.878400
   3571   3574   3585     1   112.3500484 533.878400
   3574   3575   3578     1   111.0400475 552.288000
   3574   3585   3588     1   111.0400475 552.288000
   3575   3578   3581     1   111.0400475 529.694400
   3575   3574   3585     1   112.3500484 533.878400
   3578   3581   3582     1   123.2000528 564.003200
   3578   3581   3583     1   112.7300484 572.371200
   3582   3581   3583     1   122.1000523 635.131200
   3585   3588   3591     1   111.0400475 529.694400
   3588   3591   3592     1   123.2000528 564.003200
   3588   3591   3593     1   112.7300484 572.371200
   3592   3591   3593     1   122.1000523 635.131200
   3596   3599   3602     1   111.5100476 526.347200
   3599   3596   3626     1   107.9700462 569.024000
   3599   3602   3605     1   111.0400475 552.288000
   3602   3605   3606     1   112.3500484 533.878400
   3602   3605   3616     1   112.3500484 533.878400
   3605   3606   3609     1   111.0400475 552.288000
   3605   3616   3619     1   111.0400475 552.288000
   3606   3605   3616     1   112.3500484 533.878400
   3606   3609   3612     1   111.0400475 529.694400
   3609   3612   3613     1   123.2000528 564.003200
   3609   3612   3614     1   112.7300484 572.371200
   3613   3612   3614     1   122.1000523 635.131200
   3616   3619   3622     1   111.0400475 529.694400
   3619   3622   3623     1   123.2000528 564.003200
   3619   3622   3624     1   112.7300484 572.371200
   3623   3622   3624     1   122.1000523 635.131200
   3627   3630   3633     1   111.5100476 526.347200
   3630   3633   3636     1   111.0400475 552.288000
   3630   3627   3657     1   107.9700462 569.024000
   3633   3636   3637     1   112.3500484 533.878400
   3633   3636   3647     1   112.3500484 533.878400
   3636   3637   3640     1   111.0400475 552.288000
   3636   3647   3650     1   111.0400475 552.288000
   3637   3640   3643     1   111.0400475 529.694400
   3637   3636   3647     1   112.3500484 533.878400
   3640   3643   3644     1   123.2000528 564.003200
   3640   3643   3645     1   112.7300484 572.371200
   3644   3643   3645     1   122.1000523 635.131200
   3647   3650   3653     1   111.0400475 529.694400
   3650   3653   3654     1   123.2000528 564.003200
   3650   3653   3655     1   112.7300484 572.371200
   3654   3653   3655     1   122.1000523 635.131200
   3658   3661   3664     1   111.5100476 526.347200
   3661   3658   3688     1   107.9700462 569.024000
   3661   3664   3667     1   111.0400475 552.288000
   3664   3667   3668     1   112.3500484 533.878400
   3664   3667   3678     1   112.3500484 533.878400
   3667   3668   3671     1   111.0400475 552.288000
   3667   3678   3681     1   111.0400475 552.288000
   3668   3667   3678     1   112.3500484 533.878400
   3668   3671   3674     1   111.0400475 529.694400
   3671   3674   3675     1   123.2000528 564.003200
   3671   3674   3676     1   112.7300484 572.371200
   3675   3674   3676     1   122.1000523 635.131200
   3678   3681   3684     1   111.0400475 529.694400
   3681   3684   3685     1   123.2000528 564.003200
   3681   3684   3686     1   112.7300484 572.371200
   3685   3684   3686     1   122.1000523 635.131200
   3689   3692   3695     1   111.5100476 526.347200
   3692   3695   3698     1   111.0400475 552.288000
   3692   3689   3719     1   107.9700462 569.024000
   3695   3698   3699     1   112.3500484 533.878400
   3695   3698   3709     1   112.3500484 533.878400
   3698   3699   3702     1   111.0400475 552.288000
   3698   3709   3712     1   111.0400475 552.288000
   3699   3702   3705     1   111.0400475 529.694400
   3699   3698   3709     1   112.3500484 533.878400
   3702   3705   3706     1   123.2000528 564.003200
   3702   3705   3707     1   112.7300484 572.371200
   3706   3705   3707     1   122.1000523 635.131200
   3709   3712   3715     1   111.0400475 529.694400
   3712   3715   3716     1   123.2000528 564.003200
   3712   3715   3717     1   112.7300484 572.371200
   3716   3715   3717     1   122.1000523 635.131200
   3720   3723   3726     1   111.5100476 526.347200
   3723   3720   3750     1   107.9700462 569.024000
   3723   3726   3729     1   111.0400475 552.288000
   3726   3729   3730     1   112.3500484 533.878400
   3726   3729   3740     1   112.3500484 533.878400
   3729   3730   3733     1   111.0400475 552.288000
   3729   3740   3743     1   111.0400475 552.288000
   3730   3729   3740     1   112.3500484 533.878400
   3730   3733   3736     1   111.0400475 529.694400
   3733   3736   3737     1   123.2000528 564.003200
   3733   3736   3738     1   112.7300484 572.371200
   3737   3736   3738     1   122.1000523 635.131200
   3740   3743   3746     1   111.0400475 529.694400
   3743   3746   3747     1   123.2000528 564.003200
   3743   3746   3748     1   112.7300484 572.371200
   3747   3746   3748     1   122.1000523 635.131200
   3751   3754   3757     1   111.5100476 526.347200
   3754   3757   3760     1   111.0400475 552.288000
   3754   3751   3781     1   107.9700462 569.024000
   3757   3760   3761     1   112.3500484 533.878400
   3757   3760   3771     1   112.3500484 533.878400
   3760   3761   3764     1   111.0400475 552.288000
   3760   3771   3774     1   111.0400475 552.288000
   3761   3764   3767     1   111.0400475 529.694400
   3761   3760   3771     1   112.3500484 533.878400
   3764   3767   3768     1   123.2000528 564.003200
   3764   3767   3769     1   112.7300484 572.371200
   3768   3767   3769     1   122.1000523 635.131200
   3771   3774   3777     1   111.0400475 529.694400
   3774   3777   3778     1   123.2000528 564.003200
   3774   3777   3779     1   112.7300484 572.371200
   3778   3777   3779     1   122.1000523 635.131200
      1      2      3     1   109.7800468 425.094400
      1      2      4     1   109.7800468 425.094400
      1      5      6     1   109.7800468 425.094400
      1      5      7     1   109.7800468 425.094400
      2      8      9     1   109.8000471 387.438400
      2      8     10     1   109.8000471 387.438400
      3      2      8     1   109.5600471 388.275200
      3      2      4     1   108.4600466 328.025600
      4      2      8     1   109.5600471 388.275200
      5     11     12     1   109.8000471 387.438400
      5     11     13     1   109.8000471 387.438400
      6      5     11     1   109.5600471 388.275200
      6      5      7     1   108.4600466 328.025600
      7      5     11     1   109.5600471 388.275200
      8     14     15     1   109.5600471 388.275200
      8     14     16     1   109.5600471 388.275200
      9      8     14     1   109.8000471 387.438400
      9      8     10     1   107.5800459 329.699200
     10      8     14     1   109.8000471 387.438400
     11     17     18     1   109.5600471 388.275200
     11     17     19     1   109.5600471 388.275200
     12     11     17     1   109.8000471 387.438400
     12     11     13     1   107.5800459 329.699200
     13     11     17     1   109.8000471 387.438400
     15     14     20     1   109.8800469 414.216000
     15     14     16     1   108.4600466 328.025600
     16     14     20     1   109.8800469 414.216000
     18     17     21     1   109.8800469 414.216000
     18     17     19     1   108.4600466 328.025600
     19     17     21     1   109.8800469 414.216000
     20     28     29     1   109.8800469 414.216000
     20     28     30     1   109.8800469 414.216000
     20     31     32     1   109.8800469 414.216000
     20     31     33     1   109.8800469 414.216000
     21     22     23     1   109.8800469 414.216000
     21     22     24     1   109.8800469 414.216000
     21     25     26     1   109.8800469 414.216000
     21     25     27     1   109.8800469 414.216000
     22     34     35     1   109.8000471 387.438400
     22     34     36     1   109.8000471 387.438400
     23     22     34     1   109.5600471 388.275200
     23     22     24     1   108.4600466 328.025600
     24     22     34     1   109.5600471 388.275200
     25     37     38     1   109.8000471 387.438400
     25     37     39     1   109.8000471 387.438400
     26     25     37     1   109.5600471 388.275200
     26     25     27     1   108.4600466 328.025600
     27     25     37     1   109.5600471 388.275200
     28     40     41     1   109.8000471 387.438400
     28     40     42     1   109.8000471 387.438400
     29     28     40     1   109.5600471 388.275200
     29     28     30     1   108.4600466 328.025600
     30     28     40     1   109.5600471 388.275200
     31     43     44     1   109.8000471 387.438400
     31     43     45     1   109.8000471 387.438400
     32     31     43     1   109.5600471 388.275200
     32     31     33     1   108.4600466 328.025600
     33     31     43     1   109.5600471 388.275200
     34     55     56     1   109.5600471 388.275200
     34     55     57     1   109.5600471 388.275200
     35     34     55     1   109.8000471 387.438400
     35     34     36     1   107.5800459 329.699200
     36     34     55     1   109.8000471 387.438400
     37     52     53     1   109.5600471 388.275200
     37     52     54     1   109.5600471 388.275200
     38     37     52     1   109.8000471 387.438400
     38     37     39     1   107.5800459 329.699200
     39     37     52     1   109.8000471 387.438400
     40     49     50     1   109.5600471 388.275200
     40     49     51     1   109.5600471 388.275200
     41     40     49     1   109.8000471 387.438400
     41     40     42     1   107.5800459 329.699200
     42     40     49     1   109.8000471 387.438400
     43     46     47     1   109.5600471 388.275200
     43     46     48     1   109.5600471 388.275200
     44     43     46     1   109.8000471 387.438400
     44     43     45     1   107.5800459 329.699200
     45     43     46     1   109.8000471 387.438400
     47     46     86     1   109.7800468 425.094400
     47     46     48     1   108.4600466 328.025600
     48     46     86     1   109.7800468 425.094400
     50     49    115     1   109.7800468 425.094400
     50     49     51     1   108.4600466 328.025600
     51     49    115     1   109.7800468 425.094400
     53     52    144     1   109.7800468 425.094400
     53     52     54     1   108.4600466 328.025600
     54     52    144     1   109.7800468 425.094400
     56     55    173     1   109.7800468 425.094400
     56     55     57     1   108.4600466 328.025600
     57     55    173     1   109.7800468 425.094400
     58     59     60     1   109.8800469 414.216000
     58     59     61     1   109.8800469 414.216000
     58     62     63     1   109.8800469 414.216000
     58     62     64     1   109.8800469 414.216000
     58     65     66     1   109.8800469 414.216000
     58     65     67     1   109.8800469 414.216000
     59     71     72     1   109.8000471 387.438400
     59     71     73     1   109.8000471 387.438400
     60     59     71     1   109.5600471 388.275200
     60     59     61     1   108.4600466 328.025600
     61     59     71     1   109.5600471 388.275200
     62     74     75     1   109.8000471 387.438400
     62     74     76     1   109.8000471 387.438400
     63     62     74     1   109.5600471 388.275200
     63     62     64     1   108.4600466 328.025600
     64     62     74     1   109.5600471 388.275200
     65     68     69     1   109.8000471 387.438400
     65     68     70     1   109.8000471 387.438400
     66     65     68     1   109.5600471 388.275200
     66     65     67     1   108.4600466 328.025600
     67     65     68     1   109.5600471 388.275200
     68     77     78     1   109.5600471 388.275200
     68     77     79     1   109.5600471 388.275200
     69     68     77     1   109.8000471 387.438400
     69     68     70     1   107.5800459 329.699200
     70     68     77     1   109.8000471 387.438400
     71     83     84     1   109.5600471 388.275200
     71     83     85     1   109.5600471 388.275200
     72     71     83     1   109.8000471 387.438400
     72     71     73     1   107.5800459 329.699200
     73     71     83     1   109.8000471 387.438400
     74     80     81     1   109.5600471 388.275200
     74     80     82     1   109.5600471 388.275200
     75     74     80     1   109.8000471 387.438400
     75     74     76     1   107.5800459 329.699200
     76     74     80     1   109.8000471 387.438400
     78     77     86     1   109.7800468 425.094400
     78     77     79     1   108.4600466 328.025600
     79     77     86     1   109.7800468 425.094400
     81     80    202     1   109.7800468 425.094400
     81     80     82     1   108.4600466 328.025600
     82     80    202     1   109.7800468 425.094400
     84     83    231     1   109.7800468 425.094400
     84     83     85     1   108.4600466 328.025600
     85     83    231     1   109.7800468 425.094400
     87     88     89     1   109.8800469 414.216000
     87     88     90     1   109.8800469 414.216000
     87     91     92     1   109.8800469 414.216000
     87     91     93     1   109.8800469 414.216000
     87     94     95     1   109.8800469 414.216000
     87     94     96     1   109.8800469 414.216000
     88    100    101     1   109.8000471 387.438400
     88    100    102     1   109.8000471 387.438400
     89     88    100     1   109.5600471 388.275200
     89     88     90     1   108.4600466 328.025600
     90     88    100     1   109.5600471 388.275200
     91    103    104     1   109.8000471 387.438400
     91    103    105     1   109.8000471 387.438400
     92     91    103     1   109.5600471 388.275200
     92     91     93     1   108.4600466 328.025600
     93     91    103     1   109.5600471 388.275200
     94     97     98     1   109.8000471 387.438400
     94     97     99     1   109.8000471 387.438400
     95     94     97     1   109.5600471 388.275200
     95     94     96     1   108.4600466 328.025600
     96     94     97     1   109.5600471 388.275200
     97    106    107     1   109.5600471 388.275200
     97    106    108     1   109.5600471 388.275200
     98     97    106     1   109.8000471 387.438400
     98     97     99     1   107.5800459 329.699200
     99     97    106     1   109.8000471 387.438400
    100    112    113     1   109.5600471 388.275200
    100    112    114     1   109.5600471 388.275200
    101    100    112     1   109.8000471 387.438400
    101    100    102     1   107.5800459 329.699200
    102    100    112     1   109.8000471 387.438400
    103    109    110     1   109.5600471 388.275200
    103    109    111     1   109.5600471 388.275200
    104    103    109     1   109.8000471 387.438400
    104    103    105     1   107.5800459 329.699200
    105    103    109     1   109.8000471 387.438400
    107    106    115     1   109.7800468 425.094400
    107    106    108     1   108.4600466 328.025600
    108    106    115     1   109.7800468 425.094400
    110    109    260     1   109.7800468 425.094400
    110    109    111     1   108.4600466 328.025600
    111    109    260     1   109.7800468 425.094400
    113    112    289     1   109.7800468 425.094400
    113    112    114     1   108.4600466 328.025600
    114    112    289     1   109.7800468 425.094400
    116    117    118     1   109.8800469 414.216000
    116    117    119     1   109.8800469 414.216000
    116    120    121     1   109.8800469 414.216000
    116    120    122     1   109.8800469 414.216000
    116    123    124     1   109.8800469 414.216000
    116    123    125     1   109.8800469 414.216000
    117    129    130     1   109.8000471 387.438400
    117    129    131     1   109.8000471 387.438400
    118    117    129     1   109.5600471 388.275200
    118    117    119     1   108.4600466 328.025600
    119    117    129     1   109.5600471 388.275200
    120    132    133     1   109.8000471 387.438400
    120    132    134     1   109.8000471 387.438400
    121    120    132     1   109.5600471 388.275200
    121    120    122     1   108.4600466 328.025600
    122    120    132     1   109.5600471 388.275200
    123    126    127     1   109.8000471 387.438400
    123    126    128     1   109.8000471 387.438400
    124    123    126     1   109.5600471 388.275200
    124    123    125     1   108.4600466 328.025600
    125    123    126     1   109.5600471 388.275200
    126    135    136     1   109.5600471 388.275200
    126    135    137     1   109.5600471 388.275200
    127    126    135     1   109.8000471 387.438400
    127    126    128     1   107.5800459 329.699200
    128    126    135     1   109.8000471 387.438400
    129    141    142     1   109.5600471 388.275200
    129    141    143     1   109.5600471 388.275200
    130    129    141     1   109.8000471 387.438400
    130    129    131     1   107.5800459 329.699200
    131    129    141     1   109.8000471 387.438400
    132    138    139     1   109.5600471 388.275200
    132    138    140     1   109.5600471 388.275200
    133    132    138     1   109.8000471 387.438400
    133    132    134     1   107.5800459 329.699200
    134    132    138     1   109.8000471 387.438400
    136    135    144     1   109.7800468 425.094400
    136    135    137     1   108.4600466 328.025600
    137    135    144     1   109.7800468 425.094400
    139    138    318     1   109.7800468 425.094400
    139    138    140     1   108.4600466 328.025600
    140    138    318     1   109.7800468 425.094400
    142    141    347     1   109.7800468 425.094400
    142    141    143     1   108.4600466 328.025600
    143    141    347     1   109.7800468 425.094400
    145    146    147     1   109.8800469 414.216000
    145    146    148     1   109.8800469 414.216000
    145    149    150     1   109.8800469 414.216000
    145    149    151     1   109.8800469 414.216000
    145    152    153     1   109.8800469 414.216000
    145    152    154     1   109.8800469 414.216000
    146    158    159     1   109.8000471 387.438400
    146    158    160     1   109.8000471 387.438400
    147    146    158     1   109.5600471 388.275200
    147    146    148     1   108.4600466 328.025600
    148    146    158     1   109.5600471 388.275200
    149    161    162     1   109.8000471 387.438400
    149    161    163     1   109.8000471 387.438400
    150    149    161     1   109.5600471 388.275200
    150    149    151     1   108.4600466 328.025600
    151    149    161     1   109.5600471 388.275200
    152    155    156     1   109.8000471 387.438400
    152    155    157     1   109.8000471 387.438400
    153    152    155     1   109.5600471 388.275200
    153    152    154     1   108.4600466 328.025600
    154    152    155     1   109.5600471 388.275200
    155    164    165     1   109.5600471 388.275200
    155    164    166     1   109.5600471 388.275200
    156    155    164     1   109.8000471 387.438400
    156    155    157     1   107.5800459 329.699200
    157    155    164     1   109.8000471 387.438400
    158    170    171     1   109.5600471 388.275200
    158    170    172     1   109.5600471 388.275200
    159    158    170     1   109.8000471 387.438400
    159    158    160     1   107.5800459 329.699200
    160    158    170     1   109.8000471 387.438400
    161    167    168     1   109.5600471 388.275200
    161    167    169     1   109.5600471 388.275200
    162    161    167     1   109.8000471 387.438400
    162    161    163     1   107.5800459 329.699200
    163    161    167     1   109.8000471 387.438400
    165    164    173     1   109.7800468 425.094400
    165    164    166     1   108.4600466 328.025600
    166    164    173     1   109.7800468 425.094400
    168    167    376     1   109.7800468 425.094400
    168    167    169     1   108.4600466 328.025600
    169    167    376     1   109.7800468 425.094400
    171    170    405     1   109.7800468 425.094400
    171    170    172     1   108.4600466 328.025600
    172    170    405     1   109.7800468 425.094400
    174    175    176     1   109.8800469 414.216000
    174    175    177     1   109.8800469 414.216000
    174    178    179     1   109.8800469 414.216000
    174    178    180     1   109.8800469 414.216000
    174    181    182     1   109.8800469 414.216000
    174    181    183     1   109.8800469 414.216000
    175    187    188     1   109.8000471 387.438400
    175    187    189     1   109.8000471 387.438400
    176    175    187     1   109.5600471 388.275200
    176    175    177     1   108.4600466 328.025600
    177    175    187     1   109.5600471 388.275200
    178    190    191     1   109.8000471 387.438400
    178    190    192     1   109.8000471 387.438400
    179    178    190     1   109.5600471 388.275200
    179    178    180     1   108.4600466 328.025600
    180    178    190     1   109.5600471 388.275200
    181    184    185     1   109.8000471 387.438400
    181    184    186     1   109.8000471 387.438400
    182    181    184     1   109.5600471 388.275200
    182    181    183     1   108.4600466 328.025600
    183    181    184     1   109.5600471 388.275200
    184    193    194     1   109.5600471 388.275200
    184    193    195     1   109.5600471 388.275200
    185    184    193     1   109.8000471 387.438400
    185    184    186     1   107.5800459 329.699200
    186    184    193     1   109.8000471 387.438400
    187    199    200     1   109.5600471 388.275200
    187    199    201     1   109.5600471 388.275200
    188    187    199     1   109.8000471 387.438400
    188    187    189     1   107.5800459 329.699200
    189    187    199     1   109.8000471 387.438400
    190    196    197     1   109.5600471 388.275200
    190    196    198     1   109.5600471 388.275200
    191    190    196     1   109.8000471 387.438400
    191    190    192     1   107.5800459 329.699200
    192    190    196     1   109.8000471 387.438400
    194    193    202     1   109.7800468 425.094400
    194    193    195     1   108.4600466 328.025600
    195    193    202     1   109.7800468 425.094400
    197    196    434     1   109.7800468 425.094400
    197    196    198     1   108.4600466 328.025600
    198    196    434     1   109.7800468 425.094400
    200    199    463     1   109.7800468 425.094400
    200    199    201     1   108.4600466 328.025600
    201    199    463     1   109.7800468 425.094400
    203    204    205     1   109.8800469 414.216000
    203    204    206     1   109.8800469 414.216000
    203    207    208     1   109.8800469 414.216000
    203    207    209     1   109.8800469 414.216000
    203    210    211     1   109.8800469 414.216000
    203    210    212     1   109.8800469 414.216000
    204    216    217     1   109.8000471 387.438400
    204    216    218     1   109.8000471 387.438400
    205    204    216     1   109.5600471 388.275200
    205    204    206     1   108.4600466 328.025600
    206    204    216     1   109.5600471 388.275200
    207    219    220     1   109.8000471 387.438400
    207    219    221     1   109.8000471 387.438400
    208    207    219     1   109.5600471 388.275200
    208    207    209     1   108.4600466 328.025600
    209    207    219     1   109.5600471 388.275200
    210    213    214     1   109.8000471 387.438400
    210    213    215     1   109.8000471 387.438400
    211    210    213     1   109.5600471 388.275200
    211    210    212     1   108.4600466 328.025600
    212    210    213     1   109.5600471 388.275200
    213    222    223     1   109.5600471 388.275200
    213    222    224     1   109.5600471 388.275200
    214    213    222     1   109.8000471 387.438400
    214    213    215     1   107.5800459 329.699200
    215    213    222     1   109.8000471 387.438400
    216    228    229     1   109.5600471 388.275200
    216    228    230     1   109.5600471 388.275200
    217    216    228     1   109.8000471 387.438400
    217    216    218     1   107.5800459 329.699200
    218    216    228     1   109.8000471 387.438400
    219    225    226     1   109.5600471 388.275200
    219    225    227     1   109.5600471 388.275200
    220    219    225     1   109.8000471 387.438400
    220    219    221     1   107.5800459 329.699200
    221    219    225     1   109.8000471 387.438400
    223    222    231     1   109.7800468 425.094400
    223    222    224     1   108.4600466 328.025600
    224    222    231     1   109.7800468 425.094400
    226    225    492     1   109.7800468 425.094400
    226    225    227     1   108.4600466 328.025600
    227    225    492     1   109.7800468 425.094400
    229    228    521     1   109.7800468 425.094400
    229    228    230     1   108.4600466 328.025600
    230    228    521     1   109.7800468 425.094400
    232    233    234     1   109.8800469 414.216000
    232    233    235     1   109.8800469 414.216000
    232    236    237     1   109.8800469 414.216000
    232    236    238     1   109.8800469 414.216000
    232    239    240     1   109.8800469 414.216000
    232    239    241     1   109.8800469 414.216000
    233    245    246     1   109.8000471 387.438400
    233    245    247     1   109.8000471 387.438400
    234    233    245     1   109.5600471 388.275200
    234    233    235     1   108.4600466 328.025600
    235    233    245     1   109.5600471 388.275200
    236    248    249     1   109.8000471 387.438400
    236    248    250     1   109.8000471 387.438400
    237    236    248     1   109.5600471 388.275200
    237    236    238     1   108.4600466 328.025600
    238    236    248     1   109.5600471 388.275200
    239    242    243     1   109.8000471 387.438400
    239    242    244     1   109.8000471 387.438400
    240    239    242     1   109.5600471 388.275200
    240    239    241     1   108.4600466 328.025600
    241    239    242     1   109.5600471 388.275200
    242    251    252     1   109.5600471 388.275200
    242    251    253     1   109.5600471 388.275200
    243    242    251     1   109.8000471 387.438400
    243    242    244     1   107.5800459 329.699200
    244    242    251     1   109.8000471 387.438400
    245    257    258     1   109.5600471 388.275200
    245    257    259     1   109.5600471 388.275200
    246    245    257     1   109.8000471 387.438400
    246    245    247     1   107.5800459 329.699200
    247    245    257     1   109.8000471 387.438400
    248    254    255     1   109.5600471 388.275200
    248    254    256     1   109.5600471 388.275200
    249    248    254     1   109.8000471 387.438400
    249    248    250     1   107.5800459 329.699200
    250    248    254     1   109.8000471 387.438400
    252    251    260     1   109.7800468 425.094400
    252    251    253     1   108.4600466 328.025600
    253    251    260     1   109.7800468 425.094400
    255    254    550     1   109.7800468 425.094400
    255    254    256     1   108.4600466 328.025600
    256    254    550     1   109.7800468 425.094400
    258    257    579     1   109.7800468 425.094400
    258    257    259     1   108.4600466 328.025600
    259    257    579     1   109.7800468 425.094400
    261    262    263     1   109.8800469 414.216000
    261    262    264     1   109.8800469 414.216000
    261    265    266     1   109.8800469 414.216000
    261    265    267     1   109.8800469 414.216000
    261    268    269     1   109.8800469 414.216000
    261    268    270     1   109.8800469 414.216000
    262    274    275     1   109.8000471 387.438400
    262    274    276     1   109.8000471 387.438400
    263    262    274     1   109.5600471 388.275200
    263    262    264     1   108.4600466 328.025600
    264    262    274     1   109.5600471 388.275200
    265    277    278     1   109.8000471 387.438400
    265    277    279     1   109.8000471 387.438400
    266    265    277     1   109.5600471 388.275200
    266    265    267     1   108.4600466 328.025600
    267    265    277     1   109.5600471 388.275200
    268    271    272     1   109.8000471 387.438400
    268    271    273     1   109.8000471 387.438400
    269    268    271     1   109.5600471 388.275200
    269    268    270     1   108.4600466 328.025600
    270    268    271     1   109.5600471 388.275200
    271    280    281     1   109.5600471 388.275200
    271    280    282     1   109.5600471 388.275200
    272    271    280     1   109.8000471 387.438400
    272    271    273     1   107.5800459 329.699200
    273    271    280     1   109.8000471 387.438400
    274    286    287     1   109.5600471 388.275200
    274    286    288     1   109.5600471 388.275200
    275    274    286     1   109.8000471 387.438400
    275    274    276     1   107.5800459 329.699200
    276    274    286     1   109.8000471 387.438400
    277    283    284     1   109.5600471 388.275200
    277    283    285     1   109.5600471 388.275200
    278    277    283     1   109.8000471 387.438400
    278    277    279     1   107.5800459 329.699200
    279    277    283     1   109.8000471 387.438400
    281    280    289     1   109.7800468 425.094400
    281    280    282     1   108.4600466 328.025600
    282    280    289     1   109.7800468 425.094400
    284    283    608     1   109.7800468 425.094400
    284    283    285     1   108.4600466 328.025600
    285    283    608     1   109.7800468 425.094400
    287    286    637     1   109.7800468 425.094400
    287    286    288     1   108.4600466 328.025600
    288    286    637     1   109.7800468 425.094400
    290    291    292     1   109.8800469 414.216000
    290    291    293     1   109.8800469 414.216000
    290    294    295     1   109.8800469 414.216000
    290    294    296     1   109.8800469 414.216000
    290    297    298     1   109.8800469 414.216000
    290    297    299     1   109.8800469 414.216000
    291    303    304     1   109.8000471 387.438400
    291    303    305     1   109.8000471 387.438400
    292    291    303     1   109.5600471 388.275200
    292    291    293     1   108.4600466 328.025600
    293    291    303     1   109.5600471 388.275200
    294    306    307     1   109.8000471 387.438400
    294    306    308     1   109.8000471 387.438400
    295    294    306     1   109.5600471 388.275200
    295    294    296     1   108.4600466 328.025600
    296    294    306     1   109.5600471 388.275200
    297    300    301     1   109.8000471 387.438400
    297    300    302     1   109.8000471 387.438400
    298    297    300     1   109.5600471 388.275200
    298    297    299     1   108.4600466 328.025600
    299    297    300     1   109.5600471 388.275200
    300    309    310     1   109.5600471 388.275200
    300    309    311     1   109.5600471 388.275200
    301    300    309     1   109.8000471 387.438400
    301    300    302     1   107.5800459 329.699200
    302    300    309     1   109.8000471 387.438400
    303    315    316     1   109.5600471 388.275200
    303    315    317     1   109.5600471 388.275200
    304    303    315     1   109.8000471 387.438400
    304    303    305     1   107.5800459 329.699200
    305    303    315     1   109.8000471 387.438400
    306    312    313     1   109.5600471 388.275200
    306    312    314     1   109.5600471 388.275200
    307    306    312     1   109.8000471 387.438400
    307    306    308     1   107.5800459 329.699200
    308    306    312     1   109.8000471 387.438400
    310    309    318     1   109.7800468 425.094400
    310    309    311     1   108.4600466 328.025600
    311    309    318     1   109.7800468 425.094400
    313    312    666     1   109.7800468 425.094400
    313    312    314     1   108.4600466 328.025600
    314    312    666     1   109.7800468 425.094400
    316    315    695     1   109.7800468 425.094400
    316    315    317     1   108.4600466 328.025600
    317    315    695     1   109.7800468 425.094400
    319    320    321     1   109.8800469 414.216000
    319    320    322     1   109.8800469 414.216000
    319    323    324     1   109.8800469 414.216000
    319    323    325     1   109.8800469 414.216000
    319    326    327     1   109.8800469 414.216000
    319    326    328     1   109.8800469 414.216000
    320    332    333     1   109.8000471 387.438400
    320    332    334     1   109.8000471 387.438400
    321    320    332     1   109.5600471 388.275200
    321    320    322     1   108.4600466 328.025600
    322    320    332     1   109.5600471 388.275200
    323    335    336     1   109.8000471 387.438400
    323    335    337     1   109.8000471 387.438400
    324    323    335     1   109.5600471 388.275200
    324    323    325     1   108.4600466 328.025600
    325    323    335     1   109.5600471 388.275200
    326    329    330     1   109.8000471 387.438400
    326    329    331     1   109.8000471 387.438400
    327    326    329     1   109.5600471 388.275200
    327    326    328     1   108.4600466 328.025600
    328    326    329     1   109.5600471 388.275200
    329    338    339     1   109.5600471 388.275200
    329    338    340     1   109.5600471 388.275200
    330    329    338     1   109.8000471 387.438400
    330    329    331     1   107.5800459 329.699200
    331    329    338     1   109.8000471 387.438400
    332    344    345     1   109.5600471 388.275200
    332    344    346     1   109.5600471 388.275200
    333    332    344     1   109.8000471 387.438400
    333    332    334     1   107.5800459 329.699200
    334    332    344     1   109.8000471 387.438400
    335    341    342     1   109.5600471 388.275200
    335    341    343     1   109.5600471 388.275200
    336    335    341     1   109.8000471 387.438400
    336    335    337     1   107.5800459 329.699200
    337    335    341     1   109.8000471 387.438400
    339    338    347     1   109.7800468 425.094400
    339    338    340     1   108.4600466 328.025600
    340    338    347     1   109.7800468 425.094400
    342    341    724     1   109.7800468 425.094400
    342    341    343     1   108.4600466 328.025600
    343    341    724     1   109.7800468 425.094400
    345    344    753     1   109.7800468 425.094400
    345    344    346     1   108.4600466 328.025600
    346    344    753     1   109.7800468 425.094400
    348    349    350     1   109.8800469 414.216000
    348    349    351     1   109.8800469 414.216000
    348    352    353     1   109.8800469 414.216000
    348    352    354     1   109.8800469 414.216000
    348    355    356     1   109.8800469 414.216000
    348    355    357     1   109.8800469 414.216000
    349    361    362     1   109.8000471 387.438400
    349    361    363     1   109.8000471 387.438400
    350    349    361     1   109.5600471 388.275200
    350    349    351     1   108.4600466 328.025600
    351    349    361     1   109.5600471 388.275200
    352    364    365     1   109.8000471 387.438400
    352    364    366     1   109.8000471 387.438400
    353    352    364     1   109.5600471 388.275200
    353    352    354     1   108.4600466 328.025600
    354    352    364     1   109.5600471 388.275200
    355    358    359     1   109.8000471 387.438400
    355    358    360     1   109.8000471 387.438400
    356    355    358     1   109.5600471 388.275200
    356    355    357     1   108.4600466 328.025600
    357    355    358     1   109.5600471 388.275200
    358    367    368     1   109.5600471 388.275200
    358    367    369     1   109.5600471 388.275200
    359    358    367     1   109.8000471 387.438400
    359    358    360     1   107.5800459 329.699200
    360    358    367     1   109.8000471 387.438400
    361    373    374     1   109.5600471 388.275200
    361    373    375     1   109.5600471 388.275200
    362    361    373     1   109.8000471 387.438400
    362    361    363     1   107.5800459 329.699200
    363    361    373     1   109.8000471 387.438400
    364    370    371     1   109.5600471 388.275200
    364    370    372     1   109.5600471 388.275200
    365    364    370     1   109.8000471 387.438400
    365    364    366     1   107.5800459 329.699200
    366    364    370     1   109.8000471 387.438400
    368    367    376     1   109.7800468 425.094400
    368    367    369     1   108.4600466 328.025600
    369    367    376     1   109.7800468 425.094400
    371    370    782     1   109.7800468 425.094400
    371    370    372     1   108.4600466 328.025600
    372    370    782     1   109.7800468 425.094400
    374    373    811     1   109.7800468 425.094400
    374    373    375     1   108.4600466 328.025600
    375    373    811     1   109.7800468 425.094400
    377    378    379     1   109.8800469 414.216000
    377    378    380     1   109.8800469 414.216000
    377    381    382     1   109.8800469 414.216000
    377    381    383     1   109.8800469 414.216000
    377    384    385     1   109.8800469 414.216000
    377    384    386     1   109.8800469 414.216000
    378    390    391     1   109.8000471 387.438400
    378    390    392     1   109.8000471 387.438400
    379    378    390     1   109.5600471 388.275200
    379    378    380     1   108.4600466 328.025600
    380    378    390     1   109.5600471 388.275200
    381    393    394     1   109.8000471 387.438400
    381    393    395     1   109.8000471 387.438400
    382    381    393     1   109.5600471 388.275200
    382    381    383     1   108.4600466 328.025600
    383    381    393     1   109.5600471 388.275200
    384    387    388     1   109.8000471 387.438400
    384    387    389     1   109.8000471 387.438400
    385    384    387     1   109.5600471 388.275200
    385    384    386     1   108.4600466 328.025600
    386    384    387     1   109.5600471 388.275200
    387    396    397     1   109.5600471 388.275200
    387    396    398     1   109.5600471 388.275200
    388    387    396     1   109.8000471 387.438400
    388    387    389     1   107.5800459 329.699200
    389    387    396     1   109.8000471 387.438400
    390    402    403     1   109.5600471 388.275200
    390    402    404     1   109.5600471 388.275200
    391    390    402     1   109.8000471 387.438400
    391    390    392     1   107.5800459 329.699200
    392    390    402     1   109.8000471 387.438400
    393    399    400     1   109.5600471 388.275200
    393    399    401     1   109.5600471 388.275200
    394    393    399     1   109.8000471 387.438400
    394    393    395     1   107.5800459 329.699200
    395    393    399     1   109.8000471 387.438400
    397    396    405     1   109.7800468 425.094400
    397    396    398     1   108.4600466 328.025600
    398    396    405     1   109.7800468 425.094400
    400    399    840     1   109.7800468 425.094400
    400    399    401     1   108.4600466 328.025600
    401    399    840     1   109.7800468 425.094400
    403    402    869     1   109.7800468 425.094400
    403    402    404     1   108.4600466 328.025600
    404    402    869     1   109.7800468 425.094400
    406    407    408     1   109.8800469 414.216000
    406    407    409     1   109.8800469 414.216000
    406    410    411     1   109.8800469 414.216000
    406    410    412     1   109.8800469 414.216000
    406    413    414     1   109.8800469 414.216000
    406    413    415     1   109.8800469 414.216000
    407    419    420     1   109.8000471 387.438400
    407    419    421     1   109.8000471 387.438400
    408    407    419     1   109.5600471 388.275200
    408    407    409     1   108.4600466 328.025600
    409    407    419     1   109.5600471 388.275200
    410    422    423     1   109.8000471 387.438400
    410    422    424     1   109.8000471 387.438400
    411    410    422     1   109.5600471 388.275200
    411    410    412     1   108.4600466 328.025600
    412    410    422     1   109.5600471 388.275200
    413    416    417     1   109.8000471 387.438400
    413    416    418     1   109.8000471 387.438400
    414    413    416     1   109.5600471 388.275200
    414    413    415     1   108.4600466 328.025600
    415    413    416     1   109.5600471 388.275200
    416    425    426     1   109.5600471 388.275200
    416    425    427     1   109.5600471 388.275200
    417    416    425     1   109.8000471 387.438400
    417    416    418     1   107.5800459 329.699200
    418    416    425     1   109.8000471 387.438400
    419    431    432     1   109.5600471 388.275200
    419    431    433     1   109.5600471 388.275200
    420    419    431     1   109.8000471 387.438400
    420    419    421     1   107.5800459 329.699200
    421    419    431     1   109.8000471 387.438400
    422    428    429     1   109.5600471 388.275200
    422    428    430     1   109.5600471 388.275200
    423    422    428     1   109.8000471 387.438400
    423    422    424     1   107.5800459 329.699200
    424    422    428     1   109.8000471 387.438400
    426    425    434     1   109.7800468 425.094400
    426    425    427     1   108.4600466 328.025600
    427    425    434     1   109.7800468 425.094400
    429    428    898     1   109.7800468 425.094400
    429    428    430     1   108.4600466 328.025600
    430    428    898     1   109.7800468 425.094400
    432    431    927     1   109.7800468 425.094400
    432    431    433     1   108.4600466 328.025600
    433    431    927     1   109.7800468 425.094400
    435    436    437     1   109.8800469 414.216000
    435    436    438     1   109.8800469 414.216000
    435    439    440     1   109.8800469 414.216000
    435    439    441     1   109.8800469 414.216000
    435    442    443     1   109.8800469 414.216000
    435    442    444     1   109.8800469 414.216000
    436    448    449     1   109.8000471 387.438400
    436    448    450     1   109.8000471 387.438400
    437    436    448     1   109.5600471 388.275200
    437    436    438     1   108.4600466 328.025600
    438    436    448     1   109.5600471 388.275200
    439    451    452     1   109.8000471 387.438400
    439    451    453     1   109.8000471 387.438400
    440    439    451     1   109.5600471 388.275200
    440    439    441     1   108.4600466 328.025600
    441    439    451     1   109.5600471 388.275200
    442    445    446     1   109.8000471 387.438400
    442    445    447     1   109.8000471 387.438400
    443    442    445     1   109.5600471 388.275200
    443    442    444     1   108.4600466 328.025600
    444    442    445     1   109.5600471 388.275200
    445    454    455     1   109.5600471 388.275200
    445    454    456     1   109.5600471 388.275200
    446    445    454     1   109.8000471 387.438400
    446    445    447     1   107.5800459 329.699200
    447    445    454     1   109.8000471 387.438400
    448    460    461     1   109.5600471 388.275200
    448    460    462     1   109.5600471 388.275200
    449    448    460     1   109.8000471 387.438400
    449    448    450     1   107.5800459 329.699200
    450    448    460     1   109.8000471 387.438400
    451    457    458     1   109.5600471 388.275200
    451    457    459     1   109.5600471 388.275200
    452    451    457     1   109.8000471 387.438400
    452    451    453     1   107.5800459 329.699200
    453    451    457     1   109.8000471 387.438400
    455    454    463     1   109.7800468 425.094400
    455    454    456     1   108.4600466 328.025600
    456    454    463     1   109.7800468 425.094400
    458    457    956     1   109.7800468 425.094400
    458    457    459     1   108.4600466 328.025600
    459    457    956     1   109.7800468 425.094400
    461    460    985     1   109.7800468 425.094400
    461    460    462     1   108.4600466 328.025600
    462    460    985     1   109.7800468 425.094400
    464    465    466     1   109.8800469 414.216000
    464    465    467     1   109.8800469 414.216000
    464    468    469     1   109.8800469 414.216000
    464    468    470     1   109.8800469 414.216000
    464    471    472     1   109.8800469 414.216000
    464    471    473     1   109.8800469 414.216000
    465    477    478     1   109.8000471 387.438400
    465    477    479     1   109.8000471 387.438400
    466    465    477     1   109.5600471 388.275200
    466    465    467     1   108.4600466 328.025600
    467    465    477     1   109.5600471 388.275200
    468    480    481     1   109.8000471 387.438400
    468    480    482     1   109.8000471 387.438400
    469    468    480     1   109.5600471 388.275200
    469    468    470     1   108.4600466 328.025600
    470    468    480     1   109.5600471 388.275200
    471    474    475     1   109.8000471 387.438400
    471    474    476     1   109.8000471 387.438400
    472    471    474     1   109.5600471 388.275200
    472    471    473     1   108.4600466 328.025600
    473    471    474     1   109.5600471 388.275200
    474    483    484     1   109.5600471 388.275200
    474    483    485     1   109.5600471 388.275200
    475    474    483     1   109.8000471 387.438400
    475    474    476     1   107.5800459 329.699200
    476    474    483     1   109.8000471 387.438400
    477    489    490     1   109.5600471 388.275200
    477    489    491     1   109.5600471 388.275200
    478    477    489     1   109.8000471 387.438400
    478    477    479     1   107.5800459 329.699200
    479    477    489     1   109.8000471 387.438400
    480    486    487     1   109.5600471 388.275200
    480    486    488     1   109.5600471 388.275200
    481    480    486     1   109.8000471 387.438400
    481    480    482     1   107.5800459 329.699200
    482    480    486     1   109.8000471 387.438400
    484    483    492     1   109.7800468 425.094400
    484    483    485     1   108.4600466 328.025600
    485    483    492     1   109.7800468 425.094400
    487    486   1014     1   109.7800468 425.094400
    487    486    488     1   108.4600466 328.025600
    488    486   1014     1   109.7800468 425.094400
    490    489   1043     1   109.7800468 425.094400
    490    489    491     1   108.4600466 328.025600
    491    489   1043     1   109.7800468 425.094400
    493    494    495     1   109.8800469 414.216000
    493    494    496     1   109.8800469 414.216000
    493    497    498     1   109.8800469 414.216000
    493    497    499     1   109.8800469 414.216000
    493    500    501     1   109.8800469 414.216000
    493    500    502     1   109.8800469 414.216000
    494    506    507     1   109.8000471 387.438400
    494    506    508     1   109.8000471 387.438400
    495    494    506     1   109.5600471 388.275200
    495    494    496     1   108.4600466 328.025600
    496    494    506     1   109.5600471 388.275200
    497    509    510     1   109.8000471 387.438400
    497    509    511     1   109.8000471 387.438400
    498    497    509     1   109.5600471 388.275200
    498    497    499     1   108.4600466 328.025600
    499    497    509     1   109.5600471 388.275200
    500    503    504     1   109.8000471 387.438400
    500    503    505     1   109.8000471 387.438400
    501    500    503     1   109.5600471 388.275200
    501    500    502     1   108.4600466 328.025600
    502    500    503     1   109.5600471 388.275200
    503    512    513     1   109.5600471 388.275200
    503    512    514     1   109.5600471 388.275200
    504    503    512     1   109.8000471 387.438400
    504    503    505     1   107.5800459 329.699200
    505    503    512     1   109.8000471 387.438400
    506    518    519     1   109.5600471 388.275200
    506    518    520     1   109.5600471 388.275200
    507    506    518     1   109.8000471 387.438400
    507    506    508     1   107.5800459 329.699200
    508    506    518     1   109.8000471 387.438400
    509    515    516     1   109.5600471 388.275200
    509    515    517     1   109.5600471 388.275200
    510    509    515     1   109.8000471 387.438400
    510    509    511     1   107.5800459 329.699200
    511    509    515     1   109.8000471 387.438400
    513    512    521     1   109.7800468 425.094400
    513    512    514     1   108.4600466 328.025600
    514    512    521     1   109.7800468 425.094400
    516    515   1072     1   109.7800468 425.094400
    516    515    517     1   108.4600466 328.025600
    517    515   1072     1   109.7800468 425.094400
    519    518   1101     1   109.7800468 425.094400
    519    518    520     1   108.4600466 328.025600
    520    518   1101     1   109.7800468 425.094400
    522    523    524     1   109.8800469 414.216000
    522    523    525     1   109.8800469 414.216000
    522    526    527     1   109.8800469 414.216000
    522    526    528     1   109.8800469 414.216000
    522    529    530     1   109.8800469 414.216000
    522    529    531     1   109.8800469 414.216000
    523    535    536     1   109.8000471 387.438400
    523    535    537     1   109.8000471 387.438400
    524    523    535     1   109.5600471 388.275200
    524    523    525     1   108.4600466 328.025600
    525    523    535     1   109.5600471 388.275200
    526    538    539     1   109.8000471 387.438400
    526    538    540     1   109.8000471 387.438400
    527    526    538     1   109.5600471 388.275200
    527    526    528     1   108.4600466 328.025600
    528    526    538     1   109.5600471 388.275200
    529    532    533     1   109.8000471 387.438400
    529    532    534     1   109.8000471 387.438400
    530    529    532     1   109.5600471 388.275200
    530    529    531     1   108.4600466 328.025600
    531    529    532     1   109.5600471 388.275200
    532    541    542     1   109.5600471 388.275200
    532    541    543     1   109.5600471 388.275200
    533    532    541     1   109.8000471 387.438400
    533    532    534     1   107.5800459 329.699200
    534    532    541     1   109.8000471 387.438400
    535    547    548     1   109.5600471 388.275200
    535    547    549     1   109.5600471 388.275200
    536    535    547     1   109.8000471 387.438400
    536    535    537     1   107.5800459 329.699200
    537    535    547     1   109.8000471 387.438400
    538    544    545     1   109.5600471 388.275200
    538    544    546     1   109.5600471 388.275200
    539    538    544     1   109.8000471 387.438400
    539    538    540     1   107.5800459 329.699200
    540    538    544     1   109.8000471 387.438400
    542    541    550     1   109.7800468 425.094400
    542    541    543     1   108.4600466 328.025600
    543    541    550     1   109.7800468 425.094400
    545    544   1130     1   109.7800468 425.094400
    545    544    546     1   108.4600466 328.025600
    546    544   1130     1   109.7800468 425.094400
    548    547   1159     1   109.7800468 425.094400
    548    547    549     1   108.4600466 328.025600
    549    547   1159     1   109.7800468 425.094400
    551    552    553     1   109.8800469 414.216000
    551    552    554     1   109.8800469 414.216000
    551    555    556     1   109.8800469 414.216000
    551    555    557     1   109.8800469 414.216000
    551    558    559     1   109.8800469 414.216000
    551    558    560     1   109.8800469 414.216000
    552    564    565     1   109.8000471 387.438400
    552    564    566     1   109.8000471 387.438400
    553    552    564     1   109.5600471 388.275200
    553    552    554     1   108.4600466 328.025600
    554    552    564     1   109.5600471 388.275200
    555    567    568     1   109.8000471 387.438400
    555    567    569     1   109.8000471 387.438400
    556    555    567     1   109.5600471 388.275200
    556    555    557     1   108.4600466 328.025600
    557    555    567     1   109.5600471 388.275200
    558    561    562     1   109.8000471 387.438400
    558    561    563     1   109.8000471 387.438400
    559    558    561     1   109.5600471 388.275200
    559    558    560     1   108.4600466 328.025600
    560    558    561     1   109.5600471 388.275200
    561    570    571     1   109.5600471 388.275200
    561    570    572     1   109.5600471 388.275200
    562    561    570     1   109.8000471 387.438400
    562    561    563     1   107.5800459 329.699200
    563    561    570     1   109.8000471 387.438400
    564    576    577     1   109.5600471 388.275200
    564    576    578     1   109.5600471 388.275200
    565    564    576     1   109.8000471 387.438400
    565    564    566     1   107.5800459 329.699200
    566    564    576     1   109.8000471 387.438400
    567    573    574     1   109.5600471 388.275200
    567    573    575     1   109.5600471 388.275200
    568    567    573     1   109.8000471 387.438400
    568    567    569     1   107.5800459 329.699200
    569    567    573     1   109.8000471 387.438400
    571    570    579     1   109.7800468 425.094400
    571    570    572     1   108.4600466 328.025600
    572    570    579     1   109.7800468 425.094400
    574    573   1188     1   109.7800468 425.094400
    574    573    575     1   108.4600466 328.025600
    575    573   1188     1   109.7800468 425.094400
    577    576   1217     1   109.7800468 425.094400
    577    576    578     1   108.4600466 328.025600
    578    576   1217     1   109.7800468 425.094400
    580    581    582     1   109.8800469 414.216000
    580    581    583     1   109.8800469 414.216000
    580    584    585     1   109.8800469 414.216000
    580    584    586     1   109.8800469 414.216000
    580    587    588     1   109.8800469 414.216000
    580    587    589     1   109.8800469 414.216000
    581    593    594     1   109.8000471 387.438400
    581    593    595     1   109.8000471 387.438400
    582    581    593     1   109.5600471 388.275200
    582    581    583     1   108.4600466 328.025600
    583    581    593     1   109.5600471 388.275200
    584    596    597     1   109.8000471 387.438400
    584    596    598     1   109.8000471 387.438400
    585    584    596     1   109.5600471 388.275200
    585    584    586     1   108.4600466 328.025600
    586    584    596     1   109.5600471 388.275200
    587    590    591     1   109.8000471 387.438400
    587    590    592     1   109.8000471 387.438400
    588    587    590     1   109.5600471 388.275200
    588    587    589     1   108.4600466 328.025600
    589    587    590     1   109.5600471 388.275200
    590    599    600     1   109.5600471 388.275200
    590    599    601     1   109.5600471 388.275200
    591    590    599     1   109.8000471 387.438400
    591    590    592     1   107.5800459 329.699200
    592    590    599     1   109.8000471 387.438400
    593    605    606     1   109.5600471 388.275200
    593    605    607     1   109.5600471 388.275200
    594    593    605     1   109.8000471 387.438400
    594    593    595     1   107.5800459 329.699200
    595    593    605     1   109.8000471 387.438400
    596    602    603     1   109.5600471 388.275200
    596    602    604     1   109.5600471 388.275200
    597    596    602     1   109.8000471 387.438400
    597    596    598     1   107.5800459 329.699200
    598    596    602     1   109.8000471 387.438400
    600    599    608     1   109.7800468 425.094400
    600    599    601     1   108.4600466 328.025600
    601    599    608     1   109.7800468 425.094400
    603    602   1246     1   109.7800468 425.094400
    603    602    604     1   108.4600466 328.025600
    604    602   1246     1   109.7800468 425.094400
    606    605   1275     1   109.7800468 425.094400
    606    605    607     1   108.4600466 328.025600
    607    605   1275     1   109.7800468 425.094400
    609    610    611     1   109.8800469 414.216000
    609    610    612     1   109.8800469 414.216000
    609    613    614     1   109.8800469 414.216000
    609    613    615     1   109.8800469 414.216000
    609    616    617     1   109.8800469 414.216000
    609    616    618     1   109.8800469 414.216000
    610    622    623     1   109.8000471 387.438400
    610    622    624     1   109.8000471 387.438400
    611    610    622     1   109.5600471 388.275200
    611    610    612     1   108.4600466 328.025600
    612    610    622     1   109.5600471 388.275200
    613    625    626     1   109.8000471 387.438400
    613    625    627     1   109.8000471 387.438400
    614    613    625     1   109.5600471 388.275200
    614    613    615     1   108.4600466 328.025600
    615    613    625     1   109.5600471 388.275200
    616    619    620     1   109.8000471 387.438400
    616    619    621     1   109.8000471 387.438400
    617    616    619     1   109.5600471 388.275200
    617    616    618     1   108.4600466 328.025600
    618    616    619     1   109.5600471 388.275200
    619    628    629     1   109.5600471 388.275200
    619    628    630     1   109.5600471 388.275200
    620    619    628     1   109.8000471 387.438400
    620    619    621     1   107.5800459 329.699200
    621    619    628     1   109.8000471 387.438400
    622    634    635     1   109.5600471 388.275200
    622    634    636     1   109.5600471 388.275200
    623    622    634     1   109.8000471 387.438400
    623    622    624     1   107.5800459 329.699200
    624    622    634     1   109.8000471 387.438400
    625    631    632     1   109.5600471 388.275200
    625    631    633     1   109.5600471 388.275200
    626    625    631     1   109.8000471 387.438400
    626    625    627     1   107.5800459 329.699200
    627    625    631     1   109.8000471 387.438400
    629    628    637     1   109.7800468 425.094400
    629    628    630     1   108.4600466 328.025600
    630    628    637     1   109.7800468 425.094400
    632    631   1304     1   109.7800468 425.094400
    632    631    633     1   108.4600466 328.025600
    633    631   1304     1   109.7800468 425.094400
    635    634   1333     1   109.7800468 425.094400
    635    634    636     1   108.4600466 328.025600
    636    634   1333     1   109.7800468 425.094400
    638    639    640     1   109.8800469 414.216000
    638    639    641     1   109.8800469 414.216000
    638    642    643     1   109.8800469 414.216000
    638    642    644     1   109.8800469 414.216000
    638    645    646     1   109.8800469 414.216000
    638    645    647     1   109.8800469 414.216000
    639    651    652     1   109.8000471 387.438400
    639    651    653     1   109.8000471 387.438400
    640    639    651     1   109.5600471 388.275200
    640    639    641     1   108.4600466 328.025600
    641    639    651     1   109.5600471 388.275200
    642    654    655     1   109.8000471 387.438400
    642    654    656     1   109.8000471 387.438400
    643    642    654     1   109.5600471 388.275200
    643    642    644     1   108.4600466 328.025600
    644    642    654     1   109.5600471 388.275200
    645    648    649     1   109.8000471 387.438400
    645    648    650     1   109.8000471 387.438400
    646    645    648     1   109.5600471 388.275200
    646    645    647     1   108.4600466 328.025600
    647    645    648     1   109.5600471 388.275200
    648    657    658     1   109.5600471 388.275200
    648    657    659     1   109.5600471 388.275200
    649    648    657     1   109.8000471 387.438400
    649    648    650     1   107.5800459 329.699200
    650    648    657     1   109.8000471 387.438400
    651    663    664     1   109.5600471 388.275200
    651    663    665     1   109.5600471 388.275200
    652    651    663     1   109.8000471 387.438400
    652    651    653     1   107.5800459 329.699200
    653    651    663     1   109.8000471 387.438400
    654    660    661     1   109.5600471 388.275200
    654    660    662     1   109.5600471 388.275200
    655    654    660     1   109.8000471 387.438400
    655    654    656     1   107.5800459 329.699200
    656    654    660     1   109.8000471 387.438400
    658    657    666     1   109.7800468 425.094400
    658    657    659     1   108.4600466 328.025600
    659    657    666     1   109.7800468 425.094400
    661    660   1362     1   109.7800468 425.094400
    661    660    662     1   108.4600466 328.025600
    662    660   1362     1   109.7800468 425.094400
    664    663   1391     1   109.7800468 425.094400
    664    663    665     1   108.4600466 328.025600
    665    663   1391     1   109.7800468 425.094400
    667    668    669     1   109.8800469 414.216000
    667    668    670     1   109.8800469 414.216000
    667    671    672     1   109.8800469 414.216000
    667    671    673     1   109.8800469 414.216000
    667    674    675     1   109.8800469 414.216000
    667    674    676     1   109.8800469 414.216000
    668    680    681     1   109.8000471 387.438400
    668    680    682     1   109.8000471 387.438400
    669    668    680     1   109.5600471 388.275200
    669    668    670     1   108.4600466 328.025600
    670    668    680     1   109.5600471 388.275200
    671    683    684     1   109.8000471 387.438400
    671    683    685     1   109.8000471 387.438400
    672    671    683     1   109.5600471 388.275200
    672    671    673     1   108.4600466 328.025600
    673    671    683     1   109.5600471 388.275200
    674    677    678     1   109.8000471 387.438400
    674    677    679     1   109.8000471 387.438400
    675    674    677     1   109.5600471 388.275200
    675    674    676     1   108.4600466 328.025600
    676    674    677     1   109.5600471 388.275200
    677    686    687     1   109.5600471 388.275200
    677    686    688     1   109.5600471 388.275200
    678    677    686     1   109.8000471 387.438400
    678    677    679     1   107.5800459 329.699200
    679    677    686     1   109.8000471 387.438400
    680    692    693     1   109.5600471 388.275200
    680    692    694     1   109.5600471 388.275200
    681    680    692     1   109.8000471 387.438400
    681    680    682     1   107.5800459 329.699200
    682    680    692     1   109.8000471 387.438400
    683    689    690     1   109.5600471 388.275200
    683    689    691     1   109.5600471 388.275200
    684    683    689     1   109.8000471 387.438400
    684    683    685     1   107.5800459 329.699200
    685    683    689     1   109.8000471 387.438400
    687    686    695     1   109.7800468 425.094400
    687    686    688     1   108.4600466 328.025600
    688    686    695     1   109.7800468 425.094400
    690    689   1420     1   109.7800468 425.094400
    690    689    691     1   108.4600466 328.025600
    691    689   1420     1   109.7800468 425.094400
    693    692   1449     1   109.7800468 425.094400
    693    692    694     1   108.4600466 328.025600
    694    692   1449     1   109.7800468 425.094400
    696    697    698     1   109.8800469 414.216000
    696    697    699     1   109.8800469 414.216000
    696    700    701     1   109.8800469 414.216000
    696    700    702     1   109.8800469 414.216000
    696    703    704     1   109.8800469 414.216000
    696    703    705     1   109.8800469 414.216000
    697    709    710     1   109.8000471 387.438400
    697    709    711     1   109.8000471 387.438400
    698    697    709     1   109.5600471 388.275200
    698    697    699     1   108.4600466 328.025600
    699    697    709     1   109.5600471 388.275200
    700    712    713     1   109.8000471 387.438400
    700    712    714     1   109.8000471 387.438400
    701    700    712     1   109.5600471 388.275200
    701    700    702     1   108.4600466 328.025600
    702    700    712     1   109.5600471 388.275200
    703    706    707     1   109.8000471 387.438400
    703    706    708     1   109.8000471 387.438400
    704    703    706     1   109.5600471 388.275200
    704    703    705     1   108.4600466 328.025600
    705    703    706     1   109.5600471 388.275200
    706    715    716     1   109.5600471 388.275200
    706    715    717     1   109.5600471 388.275200
    707    706    715     1   109.8000471 387.438400
    707    706    708     1   107.5800459 329.699200
    708    706    715     1   109.8000471 387.438400
    709    721    722     1   109.5600471 388.275200
    709    721    723     1   109.5600471 388.275200
    710    709    721     1   109.8000471 387.438400
    710    709    711     1   107.5800459 329.699200
    711    709    721     1   109.8000471 387.438400
    712    718    719     1   109.5600471 388.275200
    712    718    720     1   109.5600471 388.275200
    713    712    718     1   109.8000471 387.438400
    713    712    714     1   107.5800459 329.699200
    714    712    718     1   109.8000471 387.438400
    716    715    724     1   109.7800468 425.094400
    716    715    717     1   108.4600466 328.025600
    717    715    724     1   109.7800468 425.094400
    719    718   1478     1   109.7800468 425.094400
    719    718    720     1   108.4600466 328.025600
    720    718   1478     1   109.7800468 425.094400
    722    721   1507     1   109.7800468 425.094400
    722    721    723     1   108.4600466 328.025600
    723    721   1507     1   109.7800468 425.094400
    725    726    727     1   109.8800469 414.216000
    725    726    728     1   109.8800469 414.216000
    725    729    730     1   109.8800469 414.216000
    725    729    731     1   109.8800469 414.216000
    725    732    733     1   109.8800469 414.216000
    725    732    734     1   109.8800469 414.216000
    726    738    739     1   109.8000471 387.438400
    726    738    740     1   109.8000471 387.438400
    727    726    738     1   109.5600471 388.275200
    727    726    728     1   108.4600466 328.025600
    728    726    738     1   109.5600471 388.275200
    729    741    742     1   109.8000471 387.438400
    729    741    743     1   109.8000471 387.438400
    730    729    741     1   109.5600471 388.275200
    730    729    731     1   108.4600466 328.025600
    731    729    741     1   109.5600471 388.275200
    732    735    736     1   109.8000471 387.438400
    732    735    737     1   109.8000471 387.438400
    733    732    735     1   109.5600471 388.275200
    733    732    734     1   108.4600466 328.025600
    734    732    735     1   109.5600471 388.275200
    735    744    745     1   109.5600471 388.275200
    735    744    746     1   109.5600471 388.275200
    736    735    744     1   109.8000471 387.438400
    736    735    737     1   107.5800459 329.699200
    737    735    744     1   109.8000471 387.438400
    738    750    751     1   109.5600471 388.275200
    738    750    752     1   109.5600471 388.275200
    739    738    750     1   109.8000471 387.438400
    739    738    740     1   107.5800459 329.699200
    740    738    750     1   109.8000471 387.438400
    741    747    748     1   109.5600471 388.275200
    741    747    749     1   109.5600471 388.275200
    742    741    747     1   109.8000471 387.438400
    742    741    743     1   107.5800459 329.699200
    743    741    747     1   109.8000471 387.438400
    745    744    753     1   109.7800468 425.094400
    745    744    746     1   108.4600466 328.025600
    746    744    753     1   109.7800468 425.094400
    748    747   1536     1   109.7800468 425.094400
    748    747    749     1   108.4600466 328.025600
    749    747   1536     1   109.7800468 425.094400
    751    750   1565     1   109.7800468 425.094400
    751    750    752     1   108.4600466 328.025600
    752    750   1565     1   109.7800468 425.094400
    754    755    756     1   109.8800469 414.216000
    754    755    757     1   109.8800469 414.216000
    754    758    759     1   109.8800469 414.216000
    754    758    760     1   109.8800469 414.216000
    754    761    762     1   109.8800469 414.216000
    754    761    763     1   109.8800469 414.216000
    755    767    768     1   109.8000471 387.438400
    755    767    769     1   109.8000471 387.438400
    756    755    767     1   109.5600471 388.275200
    756    755    757     1   108.4600466 328.025600
    757    755    767     1   109.5600471 388.275200
    758    770    771     1   109.8000471 387.438400
    758    770    772     1   109.8000471 387.438400
    759    758    770     1   109.5600471 388.275200
    759    758    760     1   108.4600466 328.025600
    760    758    770     1   109.5600471 388.275200
    761    764    765     1   109.8000471 387.438400
    761    764    766     1   109.8000471 387.438400
    762    761    764     1   109.5600471 388.275200
    762    761    763     1   108.4600466 328.025600
    763    761    764     1   109.5600471 388.275200
    764    773    774     1   109.5600471 388.275200
    764    773    775     1   109.5600471 388.275200
    765    764    773     1   109.8000471 387.438400
    765    764    766     1   107.5800459 329.699200
    766    764    773     1   109.8000471 387.438400
    767    779    780     1   109.5600471 388.275200
    767    779    781     1   109.5600471 388.275200
    768    767    779     1   109.8000471 387.438400
    768    767    769     1   107.5800459 329.699200
    769    767    779     1   109.8000471 387.438400
    770    776    777     1   109.5600471 388.275200
    770    776    778     1   109.5600471 388.275200
    771    770    776     1   109.8000471 387.438400
    771    770    772     1   107.5800459 329.699200
    772    770    776     1   109.8000471 387.438400
    774    773    782     1   109.7800468 425.094400
    774    773    775     1   108.4600466 328.025600
    775    773    782     1   109.7800468 425.094400
    777    776   1594     1   109.7800468 425.094400
    777    776    778     1   108.4600466 328.025600
    778    776   1594     1   109.7800468 425.094400
    780    779   1623     1   109.7800468 425.094400
    780    779    781     1   108.4600466 328.025600
    781    779   1623     1   109.7800468 425.094400
    783    784    785     1   109.8800469 414.216000
    783    784    786     1   109.8800469 414.216000
    783    787    788     1   109.8800469 414.216000
    783    787    789     1   109.8800469 414.216000
    783    790    791     1   109.8800469 414.216000
    783    790    792     1   109.8800469 414.216000
    784    796    797     1   109.8000471 387.438400
    784    796    798     1   109.8000471 387.438400
    785    784    796     1   109.5600471 388.275200
    785    784    786     1   108.4600466 328.025600
    786    784    796     1   109.5600471 388.275200
    787    799    800     1   109.8000471 387.438400
    787    799    801     1   109.8000471 387.438400
    788    787    799     1   109.5600471 388.275200
    788    787    789     1   108.4600466 328.025600
    789    787    799     1   109.5600471 388.275200
    790    793    794     1   109.8000471 387.438400
    790    793    795     1   109.8000471 387.438400
    791    790    793     1   109.5600471 388.275200
    791    790    792     1   108.4600466 328.025600
    792    790    793     1   109.5600471 388.275200
    793    802    803     1   109.5600471 388.275200
    793    802    804     1   109.5600471 388.275200
    794    793    802     1   109.8000471 387.438400
    794    793    795     1   107.5800459 329.699200
    795    793    802     1   109.8000471 387.438400
    796    808    809     1   109.5600471 388.275200
    796    808    810     1   109.5600471 388.275200
    797    796    808     1   109.8000471 387.438400
    797    796    798     1   107.5800459 329.699200
    798    796    808     1   109.8000471 387.438400
    799    805    806     1   109.5600471 388.275200
    799    805    807     1   109.5600471 388.275200
    800    799    805     1   109.8000471 387.438400
    800    799    801     1   107.5800459 329.699200
    801    799    805     1   109.8000471 387.438400
    803    802    811     1   109.7800468 425.094400
    803    802    804     1   108.4600466 328.025600
    804    802    811     1   109.7800468 425.094400
    806    805   1652     1   109.7800468 425.094400
    806    805    807     1   108.4600466 328.025600
    807    805   1652     1   109.7800468 425.094400
    809    808   1681     1   109.7800468 425.094400
    809    808    810     1   108.4600466 328.025600
    810    808   1681     1   109.7800468 425.094400
    812    813    814     1   109.8800469 414.216000
    812    813    815     1   109.8800469 414.216000
    812    816    817     1   109.8800469 414.216000
    812    816    818     1   109.8800469 414.216000
    812    819    820     1   109.8800469 414.216000
    812    819    821     1   109.8800469 414.216000
    813    825    826     1   109.8000471 387.438400
    813    825    827     1   109.8000471 387.438400
    814    813    825     1   109.5600471 388.275200
    814    813    815     1   108.4600466 328.025600
    815    813    825     1   109.5600471 388.275200
    816    828    829     1   109.8000471 387.438400
    816    828    830     1   109.8000471 387.438400
    817    816    828     1   109.5600471 388.275200
    817    816    818     1   108.4600466 328.025600
    818    816    828     1   109.5600471 388.275200
    819    822    823     1   109.8000471 387.438400
    819    822    824     1   109.8000471 387.438400
    820    819    822     1   109.5600471 388.275200
    820    819    821     1   108.4600466 328.025600
    821    819    822     1   109.5600471 388.275200
    822    831    832     1   109.5600471 388.275200
    822    831    833     1   109.5600471 388.275200
    823    822    831     1   109.8000471 387.438400
    823    822    824     1   107.5800459 329.699200
    824    822    831     1   109.8000471 387.438400
    825    837    838     1   109.5600471 388.275200
    825    837    839     1   109.5600471 388.275200
    826    825    837     1   109.8000471 387.438400
    826    825    827     1   107.5800459 329.699200
    827    825    837     1   109.8000471 387.438400
    828    834    835     1   109.5600471 388.275200
    828    834    836     1   109.5600471 388.275200
    829    828    834     1   109.8000471 387.438400
    829    828    830     1   107.5800459 329.699200
    830    828    834     1   109.8000471 387.438400
    832    831    840     1   109.7800468 425.094400
    832    831    833     1   108.4600466 328.025600
    833    831    840     1   109.7800468 425.094400
    835    834   1710     1   109.7800468 425.094400
    835    834    836     1   108.4600466 328.025600
    836    834   1710     1   109.7800468 425.094400
    838    837   1739     1   109.7800468 425.094400
    838    837    839     1   108.4600466 328.025600
    839    837   1739     1   109.7800468 425.094400
    841    842    843     1   109.8800469 414.216000
    841    842    844     1   109.8800469 414.216000
    841    845    846     1   109.8800469 414.216000
    841    845    847     1   109.8800469 414.216000
    841    848    849     1   109.8800469 414.216000
    841    848    850     1   109.8800469 414.216000
    842    854    855     1   109.8000471 387.438400
    842    854    856     1   109.8000471 387.438400
    843    842    854     1   109.5600471 388.275200
    843    842    844     1   108.4600466 328.025600
    844    842    854     1   109.5600471 388.275200
    845    857    858     1   109.8000471 387.438400
    845    857    859     1   109.8000471 387.438400
    846    845    857     1   109.5600471 388.275200
    846    845    847     1   108.4600466 328.025600
    847    845    857     1   109.5600471 388.275200
    848    851    852     1   109.8000471 387.438400
    848    851    853     1   109.8000471 387.438400
    849    848    851     1   109.5600471 388.275200
    849    848    850     1   108.4600466 328.025600
    850    848    851     1   109.5600471 388.275200
    851    860    861     1   109.5600471 388.275200
    851    860    862     1   109.5600471 388.275200
    852    851    860     1   109.8000471 387.438400
    852    851    853     1   107.5800459 329.699200
    853    851    860     1   109.8000471 387.438400
    854    866    867     1   109.5600471 388.275200
    854    866    868     1   109.5600471 388.275200
    855    854    866     1   109.8000471 387.438400
    855    854    856     1   107.5800459 329.699200
    856    854    866     1   109.8000471 387.438400
    857    863    864     1   109.5600471 388.275200
    857    863    865     1   109.5600471 388.275200
    858    857    863     1   109.8000471 387.438400
    858    857    859     1   107.5800459 329.699200
    859    857    863     1   109.8000471 387.438400
    861    860    869     1   109.7800468 425.094400
    861    860    862     1   108.4600466 328.025600
    862    860    869     1   109.7800468 425.094400
    864    863   1768     1   109.7800468 425.094400
    864    863    865     1   108.4600466 328.025600
    865    863   1768     1   109.7800468 425.094400
    867    866   1797     1   109.7800468 425.094400
    867    866    868     1   108.4600466 328.025600
    868    866   1797     1   109.7800468 425.094400
    870    871    872     1   109.8800469 414.216000
    870    871    873     1   109.8800469 414.216000
    870    874    875     1   109.8800469 414.216000
    870    874    876     1   109.8800469 414.216000
    870    877    878     1   109.8800469 414.216000
    870    877    879     1   109.8800469 414.216000
    871    883    884     1   109.8000471 387.438400
    871    883    885     1   109.8000471 387.438400
    872    871    883     1   109.5600471 388.275200
    872    871    873     1   108.4600466 328.025600
    873    871    883     1   109.5600471 388.275200
    874    886    887     1   109.8000471 387.438400
    874    886    888     1   109.8000471 387.438400
    875    874    886     1   109.5600471 388.275200
    875    874    876     1   108.4600466 328.025600
    876    874    886     1   109.5600471 388.275200
    877    880    881     1   109.8000471 387.438400
    877    880    882     1   109.8000471 387.438400
    878    877    880     1   109.5600471 388.275200
    878    877    879     1   108.4600466 328.025600
    879    877    880     1   109.5600471 388.275200
    880    889    890     1   109.5600471 388.275200
    880    889    891     1   109.5600471 388.275200
    881    880    889     1   109.8000471 387.438400
    881    880    882     1   107.5800459 329.699200
    882    880    889     1   109.8000471 387.438400
    883    895    896     1   109.5600471 388.275200
    883    895    897     1   109.5600471 388.275200
    884    883    895     1   109.8000471 387.438400
    884    883    885     1   107.5800459 329.699200
    885    883    895     1   109.8000471 387.438400
    886    892    893     1   109.5600471 388.275200
    886    892    894     1   109.5600471 388.275200
    887    886    892     1   109.8000471 387.438400
    887    886    888     1   107.5800459 329.699200
    888    886    892     1   109.8000471 387.438400
    890    889    898     1   109.7800468 425.094400
    890    889    891     1   108.4600466 328.025600
    891    889    898     1   109.7800468 425.094400
    893    892   1828     1   109.7800468 425.094400
    893    892    894     1   108.4600466 328.025600
    894    892   1828     1   109.7800468 425.094400
    896    895   1859     1   109.7800468 425.094400
    896    895    897     1   108.4600466 328.025600
    897    895   1859     1   109.7800468 425.094400
    899    900    901     1   109.8800469 414.216000
    899    900    902     1   109.8800469 414.216000
    899    903    904     1   109.8800469 414.216000
    899    903    905     1   109.8800469 414.216000
    899    906    907     1   109.8800469 414.216000
    899    906    908     1   109.8800469 414.216000
    900    912    913     1   109.8000471 387.438400
    900    912    914     1   109.8000471 387.438400
    901    900    912     1   109.5600471 388.275200
    901    900    902     1   108.4600466 328.025600
    902    900    912     1   109.5600471 388.275200
    903    915    916     1   109.8000471 387.438400
    903    915    917     1   109.8000471 387.438400
    904    903    915     1   109.5600471 388.275200
    904    903    905     1   108.4600466 328.025600
    905    903    915     1   109.5600471 388.275200
    906    909    910     1   109.8000471 387.438400
    906    909    911     1   109.8000471 387.438400
    907    906    909     1   109.5600471 388.275200
    907    906    908     1   108.4600466 328.025600
    908    906    909     1   109.5600471 388.275200
    909    918    919     1   109.5600471 388.275200
    909    918    920     1   109.5600471 388.275200
    910    909    918     1   109.8000471 387.438400
    910    909    911     1   107.5800459 329.699200
    911    909    918     1   109.8000471 387.438400
    912    924    925     1   109.5600471 388.275200
    912    924    926     1   109.5600471 388.275200
    913    912    924     1   109.8000471 387.438400
    913    912    914     1   107.5800459 329.699200
    914    912    924     1   109.8000471 387.438400
    915    921    922     1   109.5600471 388.275200
    915    921    923     1   109.5600471 388.275200
    916    915    921     1   109.8000471 387.438400
    916    915    917     1   107.5800459 329.699200
    917    915    921     1   109.8000471 387.438400
    919    918    927     1   109.7800468 425.094400
    919    918    920     1   108.4600466 328.025600
    920    918    927     1   109.7800468 425.094400
    922    921   1890     1   109.7800468 425.094400
    922    921    923     1   108.4600466 328.025600
    923    921   1890     1   109.7800468 425.094400
    925    924   1921     1   109.7800468 425.094400
    925    924    926     1   108.4600466 328.025600
    926    924   1921     1   109.7800468 425.094400
    928    929    930     1   109.8800469 414.216000
    928    929    931     1   109.8800469 414.216000
    928    932    933     1   109.8800469 414.216000
    928    932    934     1   109.8800469 414.216000
    928    935    936     1   109.8800469 414.216000
    928    935    937     1   109.8800469 414.216000
    929    941    942     1   109.8000471 387.438400
    929    941    943     1   109.8000471 387.438400
    930    929    941     1   109.5600471 388.275200
    930    929    931     1   108.4600466 328.025600
    931    929    941     1   109.5600471 388.275200
    932    944    945     1   109.8000471 387.438400
    932    944    946     1   109.8000471 387.438400
    933    932    944     1   109.5600471 388.275200
    933    932    934     1   108.4600466 328.025600
    934    932    944     1   109.5600471 388.275200
    935    938    939     1   109.8000471 387.438400
    935    938    940     1   109.8000471 387.438400
    936    935    938     1   109.5600471 388.275200
    936    935    937     1   108.4600466 328.025600
    937    935    938     1   109.5600471 388.275200
    938    947    948     1   109.5600471 388.275200
    938    947    949     1   109.5600471 388.275200
    939    938    947     1   109.8000471 387.438400
    939    938    940     1   107.5800459 329.699200
    940    938    947     1   109.8000471 387.438400
    941    953    954     1   109.5600471 388.275200
    941    953    955     1   109.5600471 388.275200
    942    941    953     1   109.8000471 387.438400
    942    941    943     1   107.5800459 329.699200
    943    941    953     1   109.8000471 387.438400
    944    950    951     1   109.5600471 388.275200
    944    950    952     1   109.5600471 388.275200
    945    944    950     1   109.8000471 387.438400
    945    944    946     1   107.5800459 329.699200
    946    944    950     1   109.8000471 387.438400
    948    947    956     1   109.7800468 425.094400
    948    947    949     1   108.4600466 328.025600
    949    947    956     1   109.7800468 425.094400
    951    950   1952     1   109.7800468 425.094400
    951    950    952     1   108.4600466 328.025600
    952    950   1952     1   109.7800468 425.094400
    954    953   1983     1   109.7800468 425.094400
    954    953    955     1   108.4600466 328.025600
    955    953   1983     1   109.7800468 425.094400
    957    958    959     1   109.8800469 414.216000
    957    958    960     1   109.8800469 414.216000
    957    961    962     1   109.8800469 414.216000
    957    961    963     1   109.8800469 414.216000
    957    964    965     1   109.8800469 414.216000
    957    964    966     1   109.8800469 414.216000
    958    970    971     1   109.8000471 387.438400
    958    970    972     1   109.8000471 387.438400
    959    958    970     1   109.5600471 388.275200
    959    958    960     1   108.4600466 328.025600
    960    958    970     1   109.5600471 388.275200
    961    973    974     1   109.8000471 387.438400
    961    973    975     1   109.8000471 387.438400
    962    961    973     1   109.5600471 388.275200
    962    961    963     1   108.4600466 328.025600
    963    961    973     1   109.5600471 388.275200
    964    967    968     1   109.8000471 387.438400
    964    967    969     1   109.8000471 387.438400
    965    964    967     1   109.5600471 388.275200
    965    964    966     1   108.4600466 328.025600
    966    964    967     1   109.5600471 388.275200
    967    976    977     1   109.5600471 388.275200
    967    976    978     1   109.5600471 388.275200
    968    967    976     1   109.8000471 387.438400
    968    967    969     1   107.5800459 329.699200
    969    967    976     1   109.8000471 387.438400
    970    982    983     1   109.5600471 388.275200
    970    982    984     1   109.5600471 388.275200
    971    970    982     1   109.8000471 387.438400
    971    970    972     1   107.5800459 329.699200
    972    970    982     1   109.8000471 387.438400
    973    979    980     1   109.5600471 388.275200
    973    979    981     1   109.5600471 388.275200
    974    973    979     1   109.8000471 387.438400
    974    973    975     1   107.5800459 329.699200
    975    973    979     1   109.8000471 387.438400
    977    976    985     1   109.7800468 425.094400
    977    976    978     1   108.4600466 328.025600
    978    976    985     1   109.7800468 425.094400
    980    979   2014     1   109.7800468 425.094400
    980    979    981     1   108.4600466 328.025600
    981    979   2014     1   109.7800468 425.094400
    983    982   2045     1   109.7800468 425.094400
    983    982    984     1   108.4600466 328.025600
    984    982   2045     1   109.7800468 425.094400
    986    987    988     1   109.8800469 414.216000
    986    987    989     1   109.8800469 414.216000
    986    990    991     1   109.8800469 414.216000
    986    990    992     1   109.8800469 414.216000
    986    993    994     1   109.8800469 414.216000
    986    993    995     1   109.8800469 414.216000
    987    999   1000     1   109.8000471 387.438400
    987    999   1001     1   109.8000471 387.438400
    988    987    999     1   109.5600471 388.275200
    988    987    989     1   108.4600466 328.025600
    989    987    999     1   109.5600471 388.275200
    990   1002   1003     1   109.8000471 387.438400
    990   1002   1004     1   109.8000471 387.438400
    991    990   1002     1   109.5600471 388.275200
    991    990    992     1   108.4600466 328.025600
    992    990   1002     1   109.5600471 388.275200
    993    996    997     1   109.8000471 387.438400
    993    996    998     1   109.8000471 387.438400
    994    993    996     1   109.5600471 388.275200
    994    993    995     1   108.4600466 328.025600
    995    993    996     1   109.5600471 388.275200
    996   1005   1006     1   109.5600471 388.275200
    996   1005   1007     1   109.5600471 388.275200
    997    996   1005     1   109.8000471 387.438400
    997    996    998     1   107.5800459 329.699200
    998    996   1005     1   109.8000471 387.438400
    999   1011   1012     1   109.5600471 388.275200
    999   1011   1013     1   109.5600471 388.275200
   1000    999   1011     1   109.8000471 387.438400
   1000    999   1001     1   107.5800459 329.699200
   1001    999   1011     1   109.8000471 387.438400
   1002   1008   1009     1   109.5600471 388.275200
   1002   1008   1010     1   109.5600471 388.275200
   1003   1002   1008     1   109.8000471 387.438400
   1003   1002   1004     1   107.5800459 329.699200
   1004   1002   1008     1   109.8000471 387.438400
   1006   1005   1014     1   109.7800468 425.094400
   1006   1005   1007     1   108.4600466 328.025600
   1007   1005   1014     1   109.7800468 425.094400
   1009   1008   2076     1   109.7800468 425.094400
   1009   1008   1010     1   108.4600466 328.025600
   1010   1008   2076     1   109.7800468 425.094400
   1012   1011   2107     1   109.7800468 425.094400
   1012   1011   1013     1   108.4600466 328.025600
   1013   1011   2107     1   109.7800468 425.094400
   1015   1016   1017     1   109.8800469 414.216000
   1015   1016   1018     1   109.8800469 414.216000
   1015   1019   1020     1   109.8800469 414.216000
   1015   1019   1021     1   109.8800469 414.216000
   1015   1022   1023     1   109.8800469 414.216000
   1015   1022   1024     1   109.8800469 414.216000
   1016   1028   1029     1   109.8000471 387.438400
   1016   1028   1030     1   109.8000471 387.438400
   1017   1016   1028     1   109.5600471 388.275200
   1017   1016   1018     1   108.4600466 328.025600
   1018   1016   1028     1   109.5600471 388.275200
   1019   1031   1032     1   109.8000471 387.438400
   1019   1031   1033     1   109.8000471 387.438400
   1020   1019   1031     1   109.5600471 388.275200
   1020   1019   1021     1   108.4600466 328.025600
   1021   1019   1031     1   109.5600471 388.275200
   1022   1025   1026     1   109.8000471 387.438400
   1022   1025   1027     1   109.8000471 387.438400
   1023   1022   1025     1   109.5600471 388.275200
   1023   1022   1024     1   108.4600466 328.025600
   1024   1022   1025     1   109.5600471 388.275200
   1025   1034   1035     1   109.5600471 388.275200
   1025   1034   1036     1   109.5600471 388.275200
   1026   1025   1034     1   109.8000471 387.438400
   1026   1025   1027     1   107.5800459 329.699200
   1027   1025   1034     1   109.8000471 387.438400
   1028   1040   1041     1   109.5600471 388.275200
   1028   1040   1042     1   109.5600471 388.275200
   1029   1028   1040     1   109.8000471 387.438400
   1029   1028   1030     1   107.5800459 329.699200
   1030   1028   1040     1   109.8000471 387.438400
   1031   1037   1038     1   109.5600471 388.275200
   1031   1037   1039     1   109.5600471 388.275200
   1032   1031   1037     1   109.8000471 387.438400
   1032   1031   1033     1   107.5800459 329.699200
   1033   1031   1037     1   109.8000471 387.438400
   1035   1034   1043     1   109.7800468 425.094400
   1035   1034   1036     1   108.4600466 328.025600
   1036   1034   1043     1   109.7800468 425.094400
   1038   1037   2138     1   109.7800468 425.094400
   1038   1037   1039     1   108.4600466 328.025600
   1039   1037   2138     1   109.7800468 425.094400
   1041   1040   2169     1   109.7800468 425.094400
   1041   1040   1042     1   108.4600466 328.025600
   1042   1040   2169     1   109.7800468 425.094400
   1044   1045   1046     1   109.8800469 414.216000
   1044   1045   1047     1   109.8800469 414.216000
   1044   1048   1049     1   109.8800469 414.216000
   1044   1048   1050     1   109.8800469 414.216000
   1044   1051   1052     1   109.8800469 414.216000
   1044   1051   1053     1   109.8800469 414.216000
   1045   1057   1058     1   109.8000471 387.438400
   1045   1057   1059     1   109.8000471 387.438400
   1046   1045   1057     1   109.5600471 388.275200
   1046   1045   1047     1   108.4600466 328.025600
   1047   1045   1057     1   109.5600471 388.275200
   1048   1060   1061     1   109.8000471 387.438400
   1048   1060   1062     1   109.8000471 387.438400
   1049   1048   1060     1   109.5600471 388.275200
   1049   1048   1050     1   108.4600466 328.025600
   1050   1048   1060     1   109.5600471 388.275200
   1051   1054   1055     1   109.8000471 387.438400
   1051   1054   1056     1   109.8000471 387.438400
   1052   1051   1054     1   109.5600471 388.275200
   1052   1051   1053     1   108.4600466 328.025600
   1053   1051   1054     1   109.5600471 388.275200
   1054   1063   1064     1   109.5600471 388.275200
   1054   1063   1065     1   109.5600471 388.275200
   1055   1054   1063     1   109.8000471 387.438400
   1055   1054   1056     1   107.5800459 329.699200
   1056   1054   1063     1   109.8000471 387.438400
   1057   1069   1070     1   109.5600471 388.275200
   1057   1069   1071     1   109.5600471 388.275200
   1058   1057   1069     1   109.8000471 387.438400
   1058   1057   1059     1   107.5800459 329.699200
   1059   1057   1069     1   109.8000471 387.438400
   1060   1066   1067     1   109.5600471 388.275200
   1060   1066   1068     1   109.5600471 388.275200
   1061   1060   1066     1   109.8000471 387.438400
   1061   1060   1062     1   107.5800459 329.699200
   1062   1060   1066     1   109.8000471 387.438400
   1064   1063   1072     1   109.7800468 425.094400
   1064   1063   1065     1   108.4600466 328.025600
   1065   1063   1072     1   109.7800468 425.094400
   1067   1066   2200     1   109.7800468 425.094400
   1067   1066   1068     1   108.4600466 328.025600
   1068   1066   2200     1   109.7800468 425.094400
   1070   1069   2231     1   109.7800468 425.094400
   1070   1069   1071     1   108.4600466 328.025600
   1071   1069   2231     1   109.7800468 425.094400
   1073   1074   1075     1   109.8800469 414.216000
   1073   1074   1076     1   109.8800469 414.216000
   1073   1077   1078     1   109.8800469 414.216000
   1073   1077   1079     1   109.8800469 414.216000
   1073   1080   1081     1   109.8800469 414.216000
   1073   1080   1082     1   109.8800469 414.216000
   1074   1086   1087     1   109.8000471 387.438400
   1074   1086   1088     1   109.8000471 387.438400
   1075   1074   1086     1   109.5600471 388.275200
   1075   1074   1076     1   108.4600466 328.025600
   1076   1074   1086     1   109.5600471 388.275200
   1077   1089   1090     1   109.8000471 387.438400
   1077   1089   1091     1   109.8000471 387.438400
   1078   1077   1089     1   109.5600471 388.275200
   1078   1077   1079     1   108.4600466 328.025600
   1079   1077   1089     1   109.5600471 388.275200
   1080   1083   1084     1   109.8000471 387.438400
   1080   1083   1085     1   109.8000471 387.438400
   1081   1080   1083     1   109.5600471 388.275200
   1081   1080   1082     1   108.4600466 328.025600
   1082   1080   1083     1   109.5600471 388.275200
   1083   1092   1093     1   109.5600471 388.275200
   1083   1092   1094     1   109.5600471 388.275200
   1084   1083   1092     1   109.8000471 387.438400
   1084   1083   1085     1   107.5800459 329.699200
   1085   1083   1092     1   109.8000471 387.438400
   1086   1098   1099     1   109.5600471 388.275200
   1086   1098   1100     1   109.5600471 388.275200
   1087   1086   1098     1   109.8000471 387.438400
   1087   1086   1088     1   107.5800459 329.699200
   1088   1086   1098     1   109.8000471 387.438400
   1089   1095   1096     1   109.5600471 388.275200
   1089   1095   1097     1   109.5600471 388.275200
   1090   1089   1095     1   109.8000471 387.438400
   1090   1089   1091     1   107.5800459 329.699200
   1091   1089   1095     1   109.8000471 387.438400
   1093   1092   1101     1   109.7800468 425.094400
   1093   1092   1094     1   108.4600466 328.025600
   1094   1092   1101     1   109.7800468 425.094400
   1096   1095   2262     1   109.7800468 425.094400
   1096   1095   1097     1   108.4600466 328.025600
   1097   1095   2262     1   109.7800468 425.094400
   1099   1098   2293     1   109.7800468 425.094400
   1099   1098   1100     1   108.4600466 328.025600
   1100   1098   2293     1   109.7800468 425.094400
   1102   1103   1104     1   109.8800469 414.216000
   1102   1103   1105     1   109.8800469 414.216000
   1102   1106   1107     1   109.8800469 414.216000
   1102   1106   1108     1   109.8800469 414.216000
   1102   1109   1110     1   109.8800469 414.216000
   1102   1109   1111     1   109.8800469 414.216000
   1103   1115   1116     1   109.8000471 387.438400
   1103   1115   1117     1   109.8000471 387.438400
   1104   1103   1115     1   109.5600471 388.275200
   1104   1103   1105     1   108.4600466 328.025600
   1105   1103   1115     1   109.5600471 388.275200
   1106   1118   1119     1   109.8000471 387.438400
   1106   1118   1120     1   109.8000471 387.438400
   1107   1106   1118     1   109.5600471 388.275200
   1107   1106   1108     1   108.4600466 328.025600
   1108   1106   1118     1   109.5600471 388.275200
   1109   1112   1113     1   109.8000471 387.438400
   1109   1112   1114     1   109.8000471 387.438400
   1110   1109   1112     1   109.5600471 388.275200
   1110   1109   1111     1   108.4600466 328.025600
   1111   1109   1112     1   109.5600471 388.275200
   1112   1121   1122     1   109.5600471 388.275200
   1112   1121   1123     1   109.5600471 388.275200
   1113   1112   1121     1   109.8000471 387.438400
   1113   1112   1114     1   107.5800459 329.699200
   1114   1112   1121     1   109.8000471 387.438400
   1115   1127   1128     1   109.5600471 388.275200
   1115   1127   1129     1   109.5600471 388.275200
   1116   1115   1127     1   109.8000471 387.438400
   1116   1115   1117     1   107.5800459 329.699200
   1117   1115   1127     1   109.8000471 387.438400
   1118   1124   1125     1   109.5600471 388.275200
   1118   1124   1126     1   109.5600471 388.275200
   1119   1118   1124     1   109.8000471 387.438400
   1119   1118   1120     1   107.5800459 329.699200
   1120   1118   1124     1   109.8000471 387.438400
   1122   1121   1130     1   109.7800468 425.094400
   1122   1121   1123     1   108.4600466 328.025600
   1123   1121   1130     1   109.7800468 425.094400
   1125   1124   2324     1   109.7800468 425.094400
   1125   1124   1126     1   108.4600466 328.025600
   1126   1124   2324     1   109.7800468 425.094400
   1128   1127   2355     1   109.7800468 425.094400
   1128   1127   1129     1   108.4600466 328.025600
   1129   1127   2355     1   109.7800468 425.094400
   1131   1132   1133     1   109.8800469 414.216000
   1131   1132   1134     1   109.8800469 414.216000
   1131   1135   1136     1   109.8800469 414.216000
   1131   1135   1137     1   109.8800469 414.216000
   1131   1138   1139     1   109.8800469 414.216000
   1131   1138   1140     1   109.8800469 414.216000
   1132   1144   1145     1   109.8000471 387.438400
   1132   1144   1146     1   109.8000471 387.438400
   1133   1132   1144     1   109.5600471 388.275200
   1133   1132   1134     1   108.4600466 328.025600
   1134   1132   1144     1   109.5600471 388.275200
   1135   1147   1148     1   109.8000471 387.438400
   1135   1147   1149     1   109.8000471 387.438400
   1136   1135   1147     1   109.5600471 388.275200
   1136   1135   1137     1   108.4600466 328.025600
   1137   1135   1147     1   109.5600471 388.275200
   1138   1141   1142     1   109.8000471 387.438400
   1138   1141   1143     1   109.8000471 387.438400
   1139   1138   1141     1   109.5600471 388.275200
   1139   1138   1140     1   108.4600466 328.025600
   1140   1138   1141     1   109.5600471 388.275200
   1141   1150   1151     1   109.5600471 388.275200
   1141   1150   1152     1   109.5600471 388.275200
   1142   1141   1150     1   109.8000471 387.438400
   1142   1141   1143     1   107.5800459 329.699200
   1143   1141   1150     1   109.8000471 387.438400
   1144   1156   1157     1   109.5600471 388.275200
   1144   1156   1158     1   109.5600471 388.275200
   1145   1144   1156     1   109.8000471 387.438400
   1145   1144   1146     1   107.5800459 329.699200
   1146   1144   1156     1   109.8000471 387.438400
   1147   1153   1154     1   109.5600471 388.275200
   1147   1153   1155     1   109.5600471 388.275200
   1148   1147   1153     1   109.8000471 387.438400
   1148   1147   1149     1   107.5800459 329.699200
   1149   1147   1153     1   109.8000471 387.438400
   1151   1150   1159     1   109.7800468 425.094400
   1151   1150   1152     1   108.4600466 328.025600
   1152   1150   1159     1   109.7800468 425.094400
   1154   1153   2386     1   109.7800468 425.094400
   1154   1153   1155     1   108.4600466 328.025600
   1155   1153   2386     1   109.7800468 425.094400
   1157   1156   2417     1   109.7800468 425.094400
   1157   1156   1158     1   108.4600466 328.025600
   1158   1156   2417     1   109.7800468 425.094400
   1160   1161   1162     1   109.8800469 414.216000
   1160   1161   1163     1   109.8800469 414.216000
   1160   1164   1165     1   109.8800469 414.216000
   1160   1164   1166     1   109.8800469 414.216000
   1160   1167   1168     1   109.8800469 414.216000
   1160   1167   1169     1   109.8800469 414.216000
   1161   1173   1174     1   109.8000471 387.438400
   1161   1173   1175     1   109.8000471 387.438400
   1162   1161   1173     1   109.5600471 388.275200
   1162   1161   1163     1   108.4600466 328.025600
   1163   1161   1173     1   109.5600471 388.275200
   1164   1176   1177     1   109.8000471 387.438400
   1164   1176   1178     1   109.8000471 387.438400
   1165   1164   1176     1   109.5600471 388.275200
   1165   1164   1166     1   108.4600466 328.025600
   1166   1164   1176     1   109.5600471 388.275200
   1167   1170   1171     1   109.8000471 387.438400
   1167   1170   1172     1   109.8000471 387.438400
   1168   1167   1170     1   109.5600471 388.275200
   1168   1167   1169     1   108.4600466 328.025600
   1169   1167   1170     1   109.5600471 388.275200
   1170   1179   1180     1   109.5600471 388.275200
   1170   1179   1181     1   109.5600471 388.275200
   1171   1170   1179     1   109.8000471 387.438400
   1171   1170   1172     1   107.5800459 329.699200
   1172   1170   1179     1   109.8000471 387.438400
   1173   1185   1186     1   109.5600471 388.275200
   1173   1185   1187     1   109.5600471 388.275200
   1174   1173   1185     1   109.8000471 387.438400
   1174   1173   1175     1   107.5800459 329.699200
   1175   1173   1185     1   109.8000471 387.438400
   1176   1182   1183     1   109.5600471 388.275200
   1176   1182   1184     1   109.5600471 388.275200
   1177   1176   1182     1   109.8000471 387.438400
   1177   1176   1178     1   107.5800459 329.699200
   1178   1176   1182     1   109.8000471 387.438400
   1180   1179   1188     1   109.7800468 425.094400
   1180   1179   1181     1   108.4600466 328.025600
   1181   1179   1188     1   109.7800468 425.094400
   1183   1182   2448     1   109.7800468 425.094400
   1183   1182   1184     1   108.4600466 328.025600
   1184   1182   2448     1   109.7800468 425.094400
   1186   1185   2479     1   109.7800468 425.094400
   1186   1185   1187     1   108.4600466 328.025600
   1187   1185   2479     1   109.7800468 425.094400
   1189   1190   1191     1   109.8800469 414.216000
   1189   1190   1192     1   109.8800469 414.216000
   1189   1193   1194     1   109.8800469 414.216000
   1189   1193   1195     1   109.8800469 414.216000
   1189   1196   1197     1   109.8800469 414.216000
   1189   1196   1198     1   109.8800469 414.216000
   1190   1202   1203     1   109.8000471 387.438400
   1190   1202   1204     1   109.8000471 387.438400
   1191   1190   1202     1   109.5600471 388.275200
   1191   1190   1192     1   108.4600466 328.025600
   1192   1190   1202     1   109.5600471 388.275200
   1193   1205   1206     1   109.8000471 387.438400
   1193   1205   1207     1   109.8000471 387.438400
   1194   1193   1205     1   109.5600471 388.275200
   1194   1193   1195     1   108.4600466 328.025600
   1195   1193   1205     1   109.5600471 388.275200
   1196   1199   1200     1   109.8000471 387.438400
   1196   1199   1201     1   109.8000471 387.438400
   1197   1196   1199     1   109.5600471 388.275200
   1197   1196   1198     1   108.4600466 328.025600
   1198   1196   1199     1   109.5600471 388.275200
   1199   1208   1209     1   109.5600471 388.275200
   1199   1208   1210     1   109.5600471 388.275200
   1200   1199   1208     1   109.8000471 387.438400
   1200   1199   1201     1   107.5800459 329.699200
   1201   1199   1208     1   109.8000471 387.438400
   1202   1214   1215     1   109.5600471 388.275200
   1202   1214   1216     1   109.5600471 388.275200
   1203   1202   1214     1   109.8000471 387.438400
   1203   1202   1204     1   107.5800459 329.699200
   1204   1202   1214     1   109.8000471 387.438400
   1205   1211   1212     1   109.5600471 388.275200
   1205   1211   1213     1   109.5600471 388.275200
   1206   1205   1211     1   109.8000471 387.438400
   1206   1205   1207     1   107.5800459 329.699200
   1207   1205   1211     1   109.8000471 387.438400
   1209   1208   1217     1   109.7800468 425.094400
   1209   1208   1210     1   108.4600466 328.025600
   1210   1208   1217     1   109.7800468 425.094400
   1212   1211   2510     1   109.7800468 425.094400
   1212   1211   1213     1   108.4600466 328.025600
   1213   1211   2510     1   109.7800468 425.094400
   1215   1214   2541     1   109.7800468 425.094400
   1215   1214   1216     1   108.4600466 328.025600
   1216   1214   2541     1   109.7800468 425.094400
   1218   1219   1220     1   109.8800469 414.216000
   1218   1219   1221     1   109.8800469 414.216000
   1218   1222   1223     1   109.8800469 414.216000
   1218   1222   1224     1   109.8800469 414.216000
   1218   1225   1226     1   109.8800469 414.216000
   1218   1225   1227     1   109.8800469 414.216000
   1219   1231   1232     1   109.8000471 387.438400
   1219   1231   1233     1   109.8000471 387.438400
   1220   1219   1231     1   109.5600471 388.275200
   1220   1219   1221     1   108.4600466 328.025600
   1221   1219   1231     1   109.5600471 388.275200
   1222   1234   1235     1   109.8000471 387.438400
   1222   1234   1236     1   109.8000471 387.438400
   1223   1222   1234     1   109.5600471 388.275200
   1223   1222   1224     1   108.4600466 328.025600
   1224   1222   1234     1   109.5600471 388.275200
   1225   1228   1229     1   109.8000471 387.438400
   1225   1228   1230     1   109.8000471 387.438400
   1226   1225   1228     1   109.5600471 388.275200
   1226   1225   1227     1   108.4600466 328.025600
   1227   1225   1228     1   109.5600471 388.275200
   1228   1237   1238     1   109.5600471 388.275200
   1228   1237   1239     1   109.5600471 388.275200
   1229   1228   1237     1   109.8000471 387.438400
   1229   1228   1230     1   107.5800459 329.699200
   1230   1228   1237     1   109.8000471 387.438400
   1231   1243   1244     1   109.5600471 388.275200
   1231   1243   1245     1   109.5600471 388.275200
   1232   1231   1243     1   109.8000471 387.438400
   1232   1231   1233     1   107.5800459 329.699200
   1233   1231   1243     1   109.8000471 387.438400
   1234   1240   1241     1   109.5600471 388.275200
   1234   1240   1242     1   109.5600471 388.275200
   1235   1234   1240     1   109.8000471 387.438400
   1235   1234   1236     1   107.5800459 329.699200
   1236   1234   1240     1   109.8000471 387.438400
   1238   1237   1246     1   109.7800468 425.094400
   1238   1237   1239     1   108.4600466 328.025600
   1239   1237   1246     1   109.7800468 425.094400
   1241   1240   2572     1   109.7800468 425.094400
   1241   1240   1242     1   108.4600466 328.025600
   1242   1240   2572     1   109.7800468 425.094400
   1244   1243   2603     1   109.7800468 425.094400
   1244   1243   1245     1   108.4600466 328.025600
   1245   1243   2603     1   109.7800468 425.094400
   1247   1248   1249     1   109.8800469 414.216000
   1247   1248   1250     1   109.8800469 414.216000
   1247   1251   1252     1   109.8800469 414.216000
   1247   1251   1253     1   109.8800469 414.216000
   1247   1254   1255     1   109.8800469 414.216000
   1247   1254   1256     1   109.8800469 414.216000
   1248   1260   1261     1   109.8000471 387.438400
   1248   1260   1262     1   109.8000471 387.438400
   1249   1248   1260     1   109.5600471 388.275200
   1249   1248   1250     1   108.4600466 328.025600
   1250   1248   1260     1   109.5600471 388.275200
   1251   1263   1264     1   109.8000471 387.438400
   1251   1263   1265     1   109.8000471 387.438400
   1252   1251   1263     1   109.5600471 388.275200
   1252   1251   1253     1   108.4600466 328.025600
   1253   1251   1263     1   109.5600471 388.275200
   1254   1257   1258     1   109.8000471 387.438400
   1254   1257   1259     1   109.8000471 387.438400
   1255   1254   1257     1   109.5600471 388.275200
   1255   1254   1256     1   108.4600466 328.025600
   1256   1254   1257     1   109.5600471 388.275200
   1257   1266   1267     1   109.5600471 388.275200
   1257   1266   1268     1   109.5600471 388.275200
   1258   1257   1266     1   109.8000471 387.438400
   1258   1257   1259     1   107.5800459 329.699200
   1259   1257   1266     1   109.8000471 387.438400
   1260   1272   1273     1   109.5600471 388.275200
   1260   1272   1274     1   109.5600471 388.275200
   1261   1260   1272     1   109.8000471 387.438400
   1261   1260   1262     1   107.5800459 329.699200
   1262   1260   1272     1   109.8000471 387.438400
   1263   1269   1270     1   109.5600471 388.275200
   1263   1269   1271     1   109.5600471 388.275200
   1264   1263   1269     1   109.8000471 387.438400
   1264   1263   1265     1   107.5800459 329.699200
   1265   1263   1269     1   109.8000471 387.438400
   1267   1266   1275     1   109.7800468 425.094400
   1267   1266   1268     1   108.4600466 328.025600
   1268   1266   1275     1   109.7800468 425.094400
   1270   1269   2634     1   109.7800468 425.094400
   1270   1269   1271     1   108.4600466 328.025600
   1271   1269   2634     1   109.7800468 425.094400
   1273   1272   2665     1   109.7800468 425.094400
   1273   1272   1274     1   108.4600466 328.025600
   1274   1272   2665     1   109.7800468 425.094400
   1276   1277   1278     1   109.8800469 414.216000
   1276   1277   1279     1   109.8800469 414.216000
   1276   1280   1281     1   109.8800469 414.216000
   1276   1280   1282     1   109.8800469 414.216000
   1276   1283   1284     1   109.8800469 414.216000
   1276   1283   1285     1   109.8800469 414.216000
   1277   1289   1290     1   109.8000471 387.438400
   1277   1289   1291     1   109.8000471 387.438400
   1278   1277   1289     1   109.5600471 388.275200
   1278   1277   1279     1   108.4600466 328.025600
   1279   1277   1289     1   109.5600471 388.275200
   1280   1292   1293     1   109.8000471 387.438400
   1280   1292   1294     1   109.8000471 387.438400
   1281   1280   1292     1   109.5600471 388.275200
   1281   1280   1282     1   108.4600466 328.025600
   1282   1280   1292     1   109.5600471 388.275200
   1283   1286   1287     1   109.8000471 387.438400
   1283   1286   1288     1   109.8000471 387.438400
   1284   1283   1286     1   109.5600471 388.275200
   1284   1283   1285     1   108.4600466 328.025600
   1285   1283   1286     1   109.5600471 388.275200
   1286   1295   1296     1   109.5600471 388.275200
   1286   1295   1297     1   109.5600471 388.275200
   1287   1286   1295     1   109.8000471 387.438400
   1287   1286   1288     1   107.5800459 329.699200
   1288   1286   1295     1   109.8000471 387.438400
   1289   1301   1302     1   109.5600471 388.275200
   1289   1301   1303     1   109.5600471 388.275200
   1290   1289   1301     1   109.8000471 387.438400
   1290   1289   1291     1   107.5800459 329.699200
   1291   1289   1301     1   109.8000471 387.438400
   1292   1298   1299     1   109.5600471 388.275200
   1292   1298   1300     1   109.5600471 388.275200
   1293   1292   1298     1   109.8000471 387.438400
   1293   1292   1294     1   107.5800459 329.699200
   1294   1292   1298     1   109.8000471 387.438400
   1296   1295   1304     1   109.7800468 425.094400
   1296   1295   1297     1   108.4600466 328.025600
   1297   1295   1304     1   109.7800468 425.094400
   1299   1298   2696     1   109.7800468 425.094400
   1299   1298   1300     1   108.4600466 328.025600
   1300   1298   2696     1   109.7800468 425.094400
   1302   1301   2727     1   109.7800468 425.094400
   1302   1301   1303     1   108.4600466 328.025600
   1303   1301   2727     1   109.7800468 425.094400
   1305   1306   1307     1   109.8800469 414.216000
   1305   1306   1308     1   109.8800469 414.216000
   1305   1309   1310     1   109.8800469 414.216000
   1305   1309   1311     1   109.8800469 414.216000
   1305   1312   1313     1   109.8800469 414.216000
   1305   1312   1314     1   109.8800469 414.216000
   1306   1318   1319     1   109.8000471 387.438400
   1306   1318   1320     1   109.8000471 387.438400
   1307   1306   1318     1   109.5600471 388.275200
   1307   1306   1308     1   108.4600466 328.025600
   1308   1306   1318     1   109.5600471 388.275200
   1309   1321   1322     1   109.8000471 387.438400
   1309   1321   1323     1   109.8000471 387.438400
   1310   1309   1321     1   109.5600471 388.275200
   1310   1309   1311     1   108.4600466 328.025600
   1311   1309   1321     1   109.5600471 388.275200
   1312   1315   1316     1   109.8000471 387.438400
   1312   1315   1317     1   109.8000471 387.438400
   1313   1312   1315     1   109.5600471 388.275200
   1313   1312   1314     1   108.4600466 328.025600
   1314   1312   1315     1   109.5600471 388.275200
   1315   1324   1325     1   109.5600471 388.275200
   1315   1324   1326     1   109.5600471 388.275200
   1316   1315   1324     1   109.8000471 387.438400
   1316   1315   1317     1   107.5800459 329.699200
   1317   1315   1324     1   109.8000471 387.438400
   1318   1330   1331     1   109.5600471 388.275200
   1318   1330   1332     1   109.5600471 388.275200
   1319   1318   1330     1   109.8000471 387.438400
   1319   1318   1320     1   107.5800459 329.699200
   1320   1318   1330     1   109.8000471 387.438400
   1321   1327   1328     1   109.5600471 388.275200
   1321   1327   1329     1   109.5600471 388.275200
   1322   1321   1327     1   109.8000471 387.438400
   1322   1321   1323     1   107.5800459 329.699200
   1323   1321   1327     1   109.8000471 387.438400
   1325   1324   1333     1   109.7800468 425.094400
   1325   1324   1326     1   108.4600466 328.025600
   1326   1324   1333     1   109.7800468 425.094400
   1328   1327   2758     1   109.7800468 425.094400
   1328   1327   1329     1   108.4600466 328.025600
   1329   1327   2758     1   109.7800468 425.094400
   1331   1330   2789     1   109.7800468 425.094400
   1331   1330   1332     1   108.4600466 328.025600
   1332   1330   2789     1   109.7800468 425.094400
   1334   1335   1336     1   109.8800469 414.216000
   1334   1335   1337     1   109.8800469 414.216000
   1334   1338   1339     1   109.8800469 414.216000
   1334   1338   1340     1   109.8800469 414.216000
   1334   1341   1342     1   109.8800469 414.216000
   1334   1341   1343     1   109.8800469 414.216000
   1335   1347   1348     1   109.8000471 387.438400
   1335   1347   1349     1   109.8000471 387.438400
   1336   1335   1347     1   109.5600471 388.275200
   1336   1335   1337     1   108.4600466 328.025600
   1337   1335   1347     1   109.5600471 388.275200
   1338   1350   1351     1   109.8000471 387.438400
   1338   1350   1352     1   109.8000471 387.438400
   1339   1338   1350     1   109.5600471 388.275200
   1339   1338   1340     1   108.4600466 328.025600
   1340   1338   1350     1   109.5600471 388.275200
   1341   1344   1345     1   109.8000471 387.438400
   1341   1344   1346     1   109.8000471 387.438400
   1342   1341   1344     1   109.5600471 388.275200
   1342   1341   1343     1   108.4600466 328.025600
   1343   1341   1344     1   109.5600471 388.275200
   1344   1353   1354     1   109.5600471 388.275200
   1344   1353   1355     1   109.5600471 388.275200
   1345   1344   1353     1   109.8000471 387.438400
   1345   1344   1346     1   107.5800459 329.699200
   1346   1344   1353     1   109.8000471 387.438400
   1347   1359   1360     1   109.5600471 388.275200
   1347   1359   1361     1   109.5600471 388.275200
   1348   1347   1359     1   109.8000471 387.438400
   1348   1347   1349     1   107.5800459 329.699200
   1349   1347   1359     1   109.8000471 387.438400
   1350   1356   1357     1   109.5600471 388.275200
   1350   1356   1358     1   109.5600471 388.275200
   1351   1350   1356     1   109.8000471 387.438400
   1351   1350   1352     1   107.5800459 329.699200
   1352   1350   1356     1   109.8000471 387.438400
   1354   1353   1362     1   109.7800468 425.094400
   1354   1353   1355     1   108.4600466 328.025600
   1355   1353   1362     1   109.7800468 425.094400
   1357   1356   2820     1   109.7800468 425.094400
   1357   1356   1358     1   108.4600466 328.025600
   1358   1356   2820     1   109.7800468 425.094400
   1360   1359   2851     1   109.7800468 425.094400
   1360   1359   1361     1   108.4600466 328.025600
   1361   1359   2851     1   109.7800468 425.094400
   1363   1364   1365     1   109.8800469 414.216000
   1363   1364   1366     1   109.8800469 414.216000
   1363   1367   1368     1   109.8800469 414.216000
   1363   1367   1369     1   109.8800469 414.216000
   1363   1370   1371     1   109.8800469 414.216000
   1363   1370   1372     1   109.8800469 414.216000
   1364   1376   1377     1   109.8000471 387.438400
   1364   1376   1378     1   109.8000471 387.438400
   1365   1364   1376     1   109.5600471 388.275200
   1365   1364   1366     1   108.4600466 328.025600
   1366   1364   1376     1   109.5600471 388.275200
   1367   1379   1380     1   109.8000471 387.438400
   1367   1379   1381     1   109.8000471 387.438400
   1368   1367   1379     1   109.5600471 388.275200
   1368   1367   1369     1   108.4600466 328.025600
   1369   1367   1379     1   109.5600471 388.275200
   1370   1373   1374     1   109.8000471 387.438400
   1370   1373   1375     1   109.8000471 387.438400
   1371   1370   1373     1   109.5600471 388.275200
   1371   1370   1372     1   108.4600466 328.025600
   1372   1370   1373     1   109.5600471 388.275200
   1373   1382   1383     1   109.5600471 388.275200
   1373   1382   1384     1   109.5600471 388.275200
   1374   1373   1382     1   109.8000471 387.438400
   1374   1373   1375     1   107.5800459 329.699200
   1375   1373   1382     1   109.8000471 387.438400
   1376   1388   1389     1   109.5600471 388.275200
   1376   1388   1390     1   109.5600471 388.275200
   1377   1376   1388     1   109.8000471 387.438400
   1377   1376   1378     1   107.5800459 329.699200
   1378   1376   1388     1   109.8000471 387.438400
   1379   1385   1386     1   109.5600471 388.275200
   1379   1385   1387     1   109.5600471 388.275200
   1380   1379   1385     1   109.8000471 387.438400
   1380   1379   1381     1   107.5800459 329.699200
   1381   1379   1385     1   109.8000471 387.438400
   1383   1382   1391     1   109.7800468 425.094400
   1383   1382   1384     1   108.4600466 328.025600
   1384   1382   1391     1   109.7800468 425.094400
   1386   1385   2882     1   109.7800468 425.094400
   1386   1385   1387     1   108.4600466 328.025600
   1387   1385   2882     1   109.7800468 425.094400
   1389   1388   2913     1   109.7800468 425.094400
   1389   1388   1390     1   108.4600466 328.025600
   1390   1388   2913     1   109.7800468 425.094400
   1392   1393   1394     1   109.8800469 414.216000
   1392   1393   1395     1   109.8800469 414.216000
   1392   1396   1397     1   109.8800469 414.216000
   1392   1396   1398     1   109.8800469 414.216000
   1392   1399   1400     1   109.8800469 414.216000
   1392   1399   1401     1   109.8800469 414.216000
   1393   1405   1406     1   109.8000471 387.438400
   1393   1405   1407     1   109.8000471 387.438400
   1394   1393   1405     1   109.5600471 388.275200
   1394   1393   1395     1   108.4600466 328.025600
   1395   1393   1405     1   109.5600471 388.275200
   1396   1408   1409     1   109.8000471 387.438400
   1396   1408   1410     1   109.8000471 387.438400
   1397   1396   1408     1   109.5600471 388.275200
   1397   1396   1398     1   108.4600466 328.025600
   1398   1396   1408     1   109.5600471 388.275200
   1399   1402   1403     1   109.8000471 387.438400
   1399   1402   1404     1   109.8000471 387.438400
   1400   1399   1402     1   109.5600471 388.275200
   1400   1399   1401     1   108.4600466 328.025600
   1401   1399   1402     1   109.5600471 388.275200
   1402   1411   1412     1   109.5600471 388.275200
   1402   1411   1413     1   109.5600471 388.275200
   1403   1402   1411     1   109.8000471 387.438400
   1403   1402   1404     1   107.5800459 329.699200
   1404   1402   1411     1   109.8000471 387.438400
   1405   1417   1418     1   109.5600471 388.275200
   1405   1417   1419     1   109.5600471 388.275200
   1406   1405   1417     1   109.8000471 387.438400
   1406   1405   1407     1   107.5800459 329.699200
   1407   1405   1417     1   109.8000471 387.438400
   1408   1414   1415     1   109.5600471 388.275200
   1408   1414   1416     1   109.5600471 388.275200
   1409   1408   1414     1   109.8000471 387.438400
   1409   1408   1410     1   107.5800459 329.699200
   1410   1408   1414     1   109.8000471 387.438400
   1412   1411   1420     1   109.7800468 425.094400
   1412   1411   1413     1   108.4600466 328.025600
   1413   1411   1420     1   109.7800468 425.094400
   1415   1414   2944     1   109.7800468 425.094400
   1415   1414   1416     1   108.4600466 328.025600
   1416   1414   2944     1   109.7800468 425.094400
   1418   1417   2975     1   109.7800468 425.094400
   1418   1417   1419     1   108.4600466 328.025600
   1419   1417   2975     1   109.7800468 425.094400
   1421   1422   1423     1   109.8800469 414.216000
   1421   1422   1424     1   109.8800469 414.216000
   1421   1425   1426     1   109.8800469 414.216000
   1421   1425   1427     1   109.8800469 414.216000
   1421   1428   1429     1   109.8800469 414.216000
   1421   1428   1430     1   109.8800469 414.216000
   1422   1434   1435     1   109.8000471 387.438400
   1422   1434   1436     1   109.8000471 387.438400
   1423   1422   1434     1   109.5600471 388.275200
   1423   1422   1424     1   108.4600466 328.025600
   1424   1422   1434     1   109.5600471 388.275200
   1425   1437   1438     1   109.8000471 387.438400
   1425   1437   1439     1   109.8000471 387.438400
   1426   1425   1437     1   109.5600471 388.275200
   1426   1425   1427     1   108.4600466 328.025600
   1427   1425   1437     1   109.5600471 388.275200
   1428   1431   1432     1   109.8000471 387.438400
   1428   1431   1433     1   109.8000471 387.438400
   1429   1428   1431     1   109.5600471 388.275200
   1429   1428   1430     1   108.4600466 328.025600
   1430   1428   1431     1   109.5600471 388.275200
   1431   1440   1441     1   109.5600471 388.275200
   1431   1440   1442     1   109.5600471 388.275200
   1432   1431   1440     1   109.8000471 387.438400
   1432   1431   1433     1   107.5800459 329.699200
   1433   1431   1440     1   109.8000471 387.438400
   1434   1446   1447     1   109.5600471 388.275200
   1434   1446   1448     1   109.5600471 388.275200
   1435   1434   1446     1   109.8000471 387.438400
   1435   1434   1436     1   107.5800459 329.699200
   1436   1434   1446     1   109.8000471 387.438400
   1437   1443   1444     1   109.5600471 388.275200
   1437   1443   1445     1   109.5600471 388.275200
   1438   1437   1443     1   109.8000471 387.438400
   1438   1437   1439     1   107.5800459 329.699200
   1439   1437   1443     1   109.8000471 387.438400
   1441   1440   1449     1   109.7800468 425.094400
   1441   1440   1442     1   108.4600466 328.025600
   1442   1440   1449     1   109.7800468 425.094400
   1444   1443   3006     1   109.7800468 425.094400
   1444   1443   1445     1   108.4600466 328.025600
   1445   1443   3006     1   109.7800468 425.094400
   1447   1446   3037     1   109.7800468 425.094400
   1447   1446   1448     1   108.4600466 328.025600
   1448   1446   3037     1   109.7800468 425.094400
   1450   1451   1452     1   109.8800469 414.216000
   1450   1451   1453     1   109.8800469 414.216000
   1450   1454   1455     1   109.8800469 414.216000
   1450   1454   1456     1   109.8800469 414.216000
   1450   1457   1458     1   109.8800469 414.216000
   1450   1457   1459     1   109.8800469 414.216000
   1451   1463   1464     1   109.8000471 387.438400
   1451   1463   1465     1   109.8000471 387.438400
   1452   1451   1463     1   109.5600471 388.275200
   1452   1451   1453     1   108.4600466 328.025600
   1453   1451   1463     1   109.5600471 388.275200
   1454   1466   1467     1   109.8000471 387.438400
   1454   1466   1468     1   109.8000471 387.438400
   1455   1454   1466     1   109.5600471 388.275200
   1455   1454   1456     1   108.4600466 328.025600
   1456   1454   1466     1   109.5600471 388.275200
   1457   1460   1461     1   109.8000471 387.438400
   1457   1460   1462     1   109.8000471 387.438400
   1458   1457   1460     1   109.5600471 388.275200
   1458   1457   1459     1   108.4600466 328.025600
   1459   1457   1460     1   109.5600471 388.275200
   1460   1469   1470     1   109.5600471 388.275200
   1460   1469   1471     1   109.5600471 388.275200
   1461   1460   1469     1   109.8000471 387.438400
   1461   1460   1462     1   107.5800459 329.699200
   1462   1460   1469     1   109.8000471 387.438400
   1463   1475   1476     1   109.5600471 388.275200
   1463   1475   1477     1   109.5600471 388.275200
   1464   1463   1475     1   109.8000471 387.438400
   1464   1463   1465     1   107.5800459 329.699200
   1465   1463   1475     1   109.8000471 387.438400
   1466   1472   1473     1   109.5600471 388.275200
   1466   1472   1474     1   109.5600471 388.275200
   1467   1466   1472     1   109.8000471 387.438400
   1467   1466   1468     1   107.5800459 329.699200
   1468   1466   1472     1   109.8000471 387.438400
   1470   1469   1478     1   109.7800468 425.094400
   1470   1469   1471     1   108.4600466 328.025600
   1471   1469   1478     1   109.7800468 425.094400
   1473   1472   3068     1   109.7800468 425.094400
   1473   1472   1474     1   108.4600466 328.025600
   1474   1472   3068     1   109.7800468 425.094400
   1476   1475   3099     1   109.7800468 425.094400
   1476   1475   1477     1   108.4600466 328.025600
   1477   1475   3099     1   109.7800468 425.094400
   1479   1480   1481     1   109.8800469 414.216000
   1479   1480   1482     1   109.8800469 414.216000
   1479   1483   1484     1   109.8800469 414.216000
   1479   1483   1485     1   109.8800469 414.216000
   1479   1486   1487     1   109.8800469 414.216000
   1479   1486   1488     1   109.8800469 414.216000
   1480   1492   1493     1   109.8000471 387.438400
   1480   1492   1494     1   109.8000471 387.438400
   1481   1480   1492     1   109.5600471 388.275200
   1481   1480   1482     1   108.4600466 328.025600
   1482   1480   1492     1   109.5600471 388.275200
   1483   1495   1496     1   109.8000471 387.438400
   1483   1495   1497     1   109.8000471 387.438400
   1484   1483   1495     1   109.5600471 388.275200
   1484   1483   1485     1   108.4600466 328.025600
   1485   1483   1495     1   109.5600471 388.275200
   1486   1489   1490     1   109.8000471 387.438400
   1486   1489   1491     1   109.8000471 387.438400
   1487   1486   1489     1   109.5600471 388.275200
   1487   1486   1488     1   108.4600466 328.025600
   1488   1486   1489     1   109.5600471 388.275200
   1489   1498   1499     1   109.5600471 388.275200
   1489   1498   1500     1   109.5600471 388.275200
   1490   1489   1498     1   109.8000471 387.438400
   1490   1489   1491     1   107.5800459 329.699200
   1491   1489   1498     1   109.8000471 387.438400
   1492   1504   1505     1   109.5600471 388.275200
   1492   1504   1506     1   109.5600471 388.275200
   1493   1492   1504     1   109.8000471 387.438400
   1493   1492   1494     1   107.5800459 329.699200
   1494   1492   1504     1   109.8000471 387.438400
   1495   1501   1502     1   109.5600471 388.275200
   1495   1501   1503     1   109.5600471 388.275200
   1496   1495   1501     1   109.8000471 387.438400
   1496   1495   1497     1   107.5800459 329.699200
   1497   1495   1501     1   109.8000471 387.438400
   1499   1498   1507     1   109.7800468 425.094400
   1499   1498   1500     1   108.4600466 328.025600
   1500   1498   1507     1   109.7800468 425.094400
   1502   1501   3130     1   109.7800468 425.094400
   1502   1501   1503     1   108.4600466 328.025600
   1503   1501   3130     1   109.7800468 425.094400
   1505   1504   3161     1   109.7800468 425.094400
   1505   1504   1506     1   108.4600466 328.025600
   1506   1504   3161     1   109.7800468 425.094400
   1508   1509   1510     1   109.8800469 414.216000
   1508   1509   1511     1   109.8800469 414.216000
   1508   1512   1513     1   109.8800469 414.216000
   1508   1512   1514     1   109.8800469 414.216000
   1508   1515   1516     1   109.8800469 414.216000
   1508   1515   1517     1   109.8800469 414.216000
   1509   1521   1522     1   109.8000471 387.438400
   1509   1521   1523     1   109.8000471 387.438400
   1510   1509   1521     1   109.5600471 388.275200
   1510   1509   1511     1   108.4600466 328.025600
   1511   1509   1521     1   109.5600471 388.275200
   1512   1524   1525     1   109.8000471 387.438400
   1512   1524   1526     1   109.8000471 387.438400
   1513   1512   1524     1   109.5600471 388.275200
   1513   1512   1514     1   108.4600466 328.025600
   1514   1512   1524     1   109.5600471 388.275200
   1515   1518   1519     1   109.8000471 387.438400
   1515   1518   1520     1   109.8000471 387.438400
   1516   1515   1518     1   109.5600471 388.275200
   1516   1515   1517     1   108.4600466 328.025600
   1517   1515   1518     1   109.5600471 388.275200
   1518   1527   1528     1   109.5600471 388.275200
   1518   1527   1529     1   109.5600471 388.275200
   1519   1518   1527     1   109.8000471 387.438400
   1519   1518   1520     1   107.5800459 329.699200
   1520   1518   1527     1   109.8000471 387.438400
   1521   1533   1534     1   109.5600471 388.275200
   1521   1533   1535     1   109.5600471 388.275200
   1522   1521   1533     1   109.8000471 387.438400
   1522   1521   1523     1   107.5800459 329.699200
   1523   1521   1533     1   109.8000471 387.438400
   1524   1530   1531     1   109.5600471 388.275200
   1524   1530   1532     1   109.5600471 388.275200
   1525   1524   1530     1   109.8000471 387.438400
   1525   1524   1526     1   107.5800459 329.699200
   1526   1524   1530     1   109.8000471 387.438400
   1528   1527   1536     1   109.7800468 425.094400
   1528   1527   1529     1   108.4600466 328.025600
   1529   1527   1536     1   109.7800468 425.094400
   1531   1530   3192     1   109.7800468 425.094400
   1531   1530   1532     1   108.4600466 328.025600
   1532   1530   3192     1   109.7800468 425.094400
   1534   1533   3223     1   109.7800468 425.094400
   1534   1533   1535     1   108.4600466 328.025600
   1535   1533   3223     1   109.7800468 425.094400
   1537   1538   1539     1   109.8800469 414.216000
   1537   1538   1540     1   109.8800469 414.216000
   1537   1541   1542     1   109.8800469 414.216000
   1537   1541   1543     1   109.8800469 414.216000
   1537   1544   1545     1   109.8800469 414.216000
   1537   1544   1546     1   109.8800469 414.216000
   1538   1550   1551     1   109.8000471 387.438400
   1538   1550   1552     1   109.8000471 387.438400
   1539   1538   1550     1   109.5600471 388.275200
   1539   1538   1540     1   108.4600466 328.025600
   1540   1538   1550     1   109.5600471 388.275200
   1541   1553   1554     1   109.8000471 387.438400
   1541   1553   1555     1   109.8000471 387.438400
   1542   1541   1553     1   109.5600471 388.275200
   1542   1541   1543     1   108.4600466 328.025600
   1543   1541   1553     1   109.5600471 388.275200
   1544   1547   1548     1   109.8000471 387.438400
   1544   1547   1549     1   109.8000471 387.438400
   1545   1544   1547     1   109.5600471 388.275200
   1545   1544   1546     1   108.4600466 328.025600
   1546   1544   1547     1   109.5600471 388.275200
   1547   1556   1557     1   109.5600471 388.275200
   1547   1556   1558     1   109.5600471 388.275200
   1548   1547   1556     1   109.8000471 387.438400
   1548   1547   1549     1   107.5800459 329.699200
   1549   1547   1556     1   109.8000471 387.438400
   1550   1562   1563     1   109.5600471 388.275200
   1550   1562   1564     1   109.5600471 388.275200
   1551   1550   1562     1   109.8000471 387.438400
   1551   1550   1552     1   107.5800459 329.699200
   1552   1550   1562     1   109.8000471 387.438400
   1553   1559   1560     1   109.5600471 388.275200
   1553   1559   1561     1   109.5600471 388.275200
   1554   1553   1559     1   109.8000471 387.438400
   1554   1553   1555     1   107.5800459 329.699200
   1555   1553   1559     1   109.8000471 387.438400
   1557   1556   1565     1   109.7800468 425.094400
   1557   1556   1558     1   108.4600466 328.025600
   1558   1556   1565     1   109.7800468 425.094400
   1560   1559   3254     1   109.7800468 425.094400
   1560   1559   1561     1   108.4600466 328.025600
   1561   1559   3254     1   109.7800468 425.094400
   1563   1562   3285     1   109.7800468 425.094400
   1563   1562   1564     1   108.4600466 328.025600
   1564   1562   3285     1   109.7800468 425.094400
   1566   1567   1568     1   109.8800469 414.216000
   1566   1567   1569     1   109.8800469 414.216000
   1566   1570   1571     1   109.8800469 414.216000
   1566   1570   1572     1   109.8800469 414.216000
   1566   1573   1574     1   109.8800469 414.216000
   1566   1573   1575     1   109.8800469 414.216000
   1567   1579   1580     1   109.8000471 387.438400
   1567   1579   1581     1   109.8000471 387.438400
   1568   1567   1579     1   109.5600471 388.275200
   1568   1567   1569     1   108.4600466 328.025600
   1569   1567   1579     1   109.5600471 388.275200
   1570   1582   1583     1   109.8000471 387.438400
   1570   1582   1584     1   109.8000471 387.438400
   1571   1570   1582     1   109.5600471 388.275200
   1571   1570   1572     1   108.4600466 328.025600
   1572   1570   1582     1   109.5600471 388.275200
   1573   1576   1577     1   109.8000471 387.438400
   1573   1576   1578     1   109.8000471 387.438400
   1574   1573   1576     1   109.5600471 388.275200
   1574   1573   1575     1   108.4600466 328.025600
   1575   1573   1576     1   109.5600471 388.275200
   1576   1585   1586     1   109.5600471 388.275200
   1576   1585   1587     1   109.5600471 388.275200
   1577   1576   1585     1   109.8000471 387.438400
   1577   1576   1578     1   107.5800459 329.699200
   1578   1576   1585     1   109.8000471 387.438400
   1579   1591   1592     1   109.5600471 388.275200
   1579   1591   1593     1   109.5600471 388.275200
   1580   1579   1591     1   109.8000471 387.438400
   1580   1579   1581     1   107.5800459 329.699200
   1581   1579   1591     1   109.8000471 387.438400
   1582   1588   1589     1   109.5600471 388.275200
   1582   1588   1590     1   109.5600471 388.275200
   1583   1582   1588     1   109.8000471 387.438400
   1583   1582   1584     1   107.5800459 329.699200
   1584   1582   1588     1   109.8000471 387.438400
   1586   1585   1594     1   109.7800468 425.094400
   1586   1585   1587     1   108.4600466 328.025600
   1587   1585   1594     1   109.7800468 425.094400
   1589   1588   3316     1   109.7800468 425.094400
   1589   1588   1590     1   108.4600466 328.025600
   1590   1588   3316     1   109.7800468 425.094400
   1592   1591   3347     1   109.7800468 425.094400
   1592   1591   1593     1   108.4600466 328.025600
   1593   1591   3347     1   109.7800468 425.094400
   1595   1596   1597     1   109.8800469 414.216000
   1595   1596   1598     1   109.8800469 414.216000
   1595   1599   1600     1   109.8800469 414.216000
   1595   1599   1601     1   109.8800469 414.216000
   1595   1602   1603     1   109.8800469 414.216000
   1595   1602   1604     1   109.8800469 414.216000
   1596   1608   1609     1   109.8000471 387.438400
   1596   1608   1610     1   109.8000471 387.438400
   1597   1596   1608     1   109.5600471 388.275200
   1597   1596   1598     1   108.4600466 328.025600
   1598   1596   1608     1   109.5600471 388.275200
   1599   1611   1612     1   109.8000471 387.438400
   1599   1611   1613     1   109.8000471 387.438400
   1600   1599   1611     1   109.5600471 388.275200
   1600   1599   1601     1   108.4600466 328.025600
   1601   1599   1611     1   109.5600471 388.275200
   1602   1605   1606     1   109.8000471 387.438400
   1602   1605   1607     1   109.8000471 387.438400
   1603   1602   1605     1   109.5600471 388.275200
   1603   1602   1604     1   108.4600466 328.025600
   1604   1602   1605     1   109.5600471 388.275200
   1605   1614   1615     1   109.5600471 388.275200
   1605   1614   1616     1   109.5600471 388.275200
   1606   1605   1614     1   109.8000471 387.438400
   1606   1605   1607     1   107.5800459 329.699200
   1607   1605   1614     1   109.8000471 387.438400
   1608   1620   1621     1   109.5600471 388.275200
   1608   1620   1622     1   109.5600471 388.275200
   1609   1608   1620     1   109.8000471 387.438400
   1609   1608   1610     1   107.5800459 329.699200
   1610   1608   1620     1   109.8000471 387.438400
   1611   1617   1618     1   109.5600471 388.275200
   1611   1617   1619     1   109.5600471 388.275200
   1612   1611   1617     1   109.8000471 387.438400
   1612   1611   1613     1   107.5800459 329.699200
   1613   1611   1617     1   109.8000471 387.438400
   1615   1614   1623     1   109.7800468 425.094400
   1615   1614   1616     1   108.4600466 328.025600
   1616   1614   1623     1   109.7800468 425.094400
   1618   1617   3378     1   109.7800468 425.094400
   1618   1617   1619     1   108.4600466 328.025600
   1619   1617   3378     1   109.7800468 425.094400
   1621   1620   3409     1   109.7800468 425.094400
   1621   1620   1622     1   108.4600466 328.025600
   1622   1620   3409     1   109.7800468 425.094400
   1624   1625   1626     1   109.8800469 414.216000
   1624   1625   1627     1   109.8800469 414.216000
   1624   1628   1629     1   109.8800469 414.216000
   1624   1628   1630     1   109.8800469 414.216000
   1624   1631   1632     1   109.8800469 414.216000
   1624   1631   1633     1   109.8800469 414.216000
   1625   1637   1638     1   109.8000471 387.438400
   1625   1637   1639     1   109.8000471 387.438400
   1626   1625   1637     1   109.5600471 388.275200
   1626   1625   1627     1   108.4600466 328.025600
   1627   1625   1637     1   109.5600471 388.275200
   1628   1640   1641     1   109.8000471 387.438400
   1628   1640   1642     1   109.8000471 387.438400
   1629   1628   1640     1   109.5600471 388.275200
   1629   1628   1630     1   108.4600466 328.025600
   1630   1628   1640     1   109.5600471 388.275200
   1631   1634   1635     1   109.8000471 387.438400
   1631   1634   1636     1   109.8000471 387.438400
   1632   1631   1634     1   109.5600471 388.275200
   1632   1631   1633     1   108.4600466 328.025600
   1633   1631   1634     1   109.5600471 388.275200
   1634   1643   1644     1   109.5600471 388.275200
   1634   1643   1645     1   109.5600471 388.275200
   1635   1634   1643     1   109.8000471 387.438400
   1635   1634   1636     1   107.5800459 329.699200
   1636   1634   1643     1   109.8000471 387.438400
   1637   1649   1650     1   109.5600471 388.275200
   1637   1649   1651     1   109.5600471 388.275200
   1638   1637   1649     1   109.8000471 387.438400
   1638   1637   1639     1   107.5800459 329.699200
   1639   1637   1649     1   109.8000471 387.438400
   1640   1646   1647     1   109.5600471 388.275200
   1640   1646   1648     1   109.5600471 388.275200
   1641   1640   1646     1   109.8000471 387.438400
   1641   1640   1642     1   107.5800459 329.699200
   1642   1640   1646     1   109.8000471 387.438400
   1644   1643   1652     1   109.7800468 425.094400
   1644   1643   1645     1   108.4600466 328.025600
   1645   1643   1652     1   109.7800468 425.094400
   1647   1646   3440     1   109.7800468 425.094400
   1647   1646   1648     1   108.4600466 328.025600
   1648   1646   3440     1   109.7800468 425.094400
   1650   1649   3471     1   109.7800468 425.094400
   1650   1649   1651     1   108.4600466 328.025600
   1651   1649   3471     1   109.7800468 425.094400
   1653   1654   1655     1   109.8800469 414.216000
   1653   1654   1656     1   109.8800469 414.216000
   1653   1657   1658     1   109.8800469 414.216000
   1653   1657   1659     1   109.8800469 414.216000
   1653   1660   1661     1   109.8800469 414.216000
   1653   1660   1662     1   109.8800469 414.216000
   1654   1666   1667     1   109.8000471 387.438400
   1654   1666   1668     1   109.8000471 387.438400
   1655   1654   1666     1   109.5600471 388.275200
   1655   1654   1656     1   108.4600466 328.025600
   1656   1654   1666     1   109.5600471 388.275200
   1657   1669   1670     1   109.8000471 387.438400
   1657   1669   1671     1   109.8000471 387.438400
   1658   1657   1669     1   109.5600471 388.275200
   1658   1657   1659     1   108.4600466 328.025600
   1659   1657   1669     1   109.5600471 388.275200
   1660   1663   1664     1   109.8000471 387.438400
   1660   1663   1665     1   109.8000471 387.438400
   1661   1660   1663     1   109.5600471 388.275200
   1661   1660   1662     1   108.4600466 328.025600
   1662   1660   1663     1   109.5600471 388.275200
   1663   1672   1673     1   109.5600471 388.275200
   1663   1672   1674     1   109.5600471 388.275200
   1664   1663   1672     1   109.8000471 387.438400
   1664   1663   1665     1   107.5800459 329.699200
   1665   1663   1672     1   109.8000471 387.438400
   1666   1678   1679     1   109.5600471 388.275200
   1666   1678   1680     1   109.5600471 388.275200
   1667   1666   1678     1   109.8000471 387.438400
   1667   1666   1668     1   107.5800459 329.699200
   1668   1666   1678     1   109.8000471 387.438400
   1669   1675   1676     1   109.5600471 388.275200
   1669   1675   1677     1   109.5600471 388.275200
   1670   1669   1675     1   109.8000471 387.438400
   1670   1669   1671     1   107.5800459 329.699200
   1671   1669   1675     1   109.8000471 387.438400
   1673   1672   1681     1   109.7800468 425.094400
   1673   1672   1674     1   108.4600466 328.025600
   1674   1672   1681     1   109.7800468 425.094400
   1676   1675   3502     1   109.7800468 425.094400
   1676   1675   1677     1   108.4600466 328.025600
   1677   1675   3502     1   109.7800468 425.094400
   1679   1678   3533     1   109.7800468 425.094400
   1679   1678   1680     1   108.4600466 328.025600
   1680   1678   3533     1   109.7800468 425.094400
   1682   1683   1684     1   109.8800469 414.216000
   1682   1683   1685     1   109.8800469 414.216000
   1682   1686   1687     1   109.8800469 414.216000
   1682   1686   1688     1   109.8800469 414.216000
   1682   1689   1690     1   109.8800469 414.216000
   1682   1689   1691     1   109.8800469 414.216000
   1683   1695   1696     1   109.8000471 387.438400
   1683   1695   1697     1   109.8000471 387.438400
   1684   1683   1695     1   109.5600471 388.275200
   1684   1683   1685     1   108.4600466 328.025600
   1685   1683   1695     1   109.5600471 388.275200
   1686   1698   1699     1   109.8000471 387.438400
   1686   1698   1700     1   109.8000471 387.438400
   1687   1686   1698     1   109.5600471 388.275200
   1687   1686   1688     1   108.4600466 328.025600
   1688   1686   1698     1   109.5600471 388.275200
   1689   1692   1693     1   109.8000471 387.438400
   1689   1692   1694     1   109.8000471 387.438400
   1690   1689   1692     1   109.5600471 388.275200
   1690   1689   1691     1   108.4600466 328.025600
   1691   1689   1692     1   109.5600471 388.275200
   1692   1701   1702     1   109.5600471 388.275200
   1692   1701   1703     1   109.5600471 388.275200
   1693   1692   1701     1   109.8000471 387.438400
   1693   1692   1694     1   107.5800459 329.699200
   1694   1692   1701     1   109.8000471 387.438400
   1695   1707   1708     1   109.5600471 388.275200
   1695   1707   1709     1   109.5600471 388.275200
   1696   1695   1707     1   109.8000471 387.438400
   1696   1695   1697     1   107.5800459 329.699200
   1697   1695   1707     1   109.8000471 387.438400
   1698   1704   1705     1   109.5600471 388.275200
   1698   1704   1706     1   109.5600471 388.275200
   1699   1698   1704     1   109.8000471 387.438400
   1699   1698   1700     1   107.5800459 329.699200
   1700   1698   1704     1   109.8000471 387.438400
   1702   1701   1710     1   109.7800468 425.094400
   1702   1701   1703     1   108.4600466 328.025600
   1703   1701   1710     1   109.7800468 425.094400
   1705   1704   3564     1   109.7800468 425.094400
   1705   1704   1706     1   108.4600466 328.025600
   1706   1704   3564     1   109.7800468 425.094400
   1708   1707   3595     1   109.7800468 425.094400
   1708   1707   1709     1   108.4600466 328.025600
   1709   1707   3595     1   109.7800468 425.094400
   1711   1712   1713     1   109.8800469 414.216000
   1711   1712   1714     1   109.8800469 414.216000
   1711   1715   1716     1   109.8800469 414.216000
   1711   1715   1717     1   109.8800469 414.216000
   1711   1718   1719     1   109.8800469 414.216000
   1711   1718   1720     1   109.8800469 414.216000
   1712   1724   1725     1   109.8000471 387.438400
   1712   1724   1726     1   109.8000471 387.438400
   1713   1712   1724     1   109.5600471 388.275200
   1713   1712   1714     1   108.4600466 328.025600
   1714   1712   1724     1   109.5600471 388.275200
   1715   1727   1728     1   109.8000471 387.438400
   1715   1727   1729     1   109.8000471 387.438400
   1716   1715   1727     1   109.5600471 388.275200
   1716   1715   1717     1   108.4600466 328.025600
   1717   1715   1727     1   109.5600471 388.275200
   1718   1721   1722     1   109.8000471 387.438400
   1718   1721   1723     1   109.8000471 387.438400
   1719   1718   1721     1   109.5600471 388.275200
   1719   1718   1720     1   108.4600466 328.025600
   1720   1718   1721     1   109.5600471 388.275200
   1721   1730   1731     1   109.5600471 388.275200
   1721   1730   1732     1   109.5600471 388.275200
   1722   1721   1730     1   109.8000471 387.438400
   1722   1721   1723     1   107.5800459 329.699200
   1723   1721   1730     1   109.8000471 387.438400
   1724   1736   1737     1   109.5600471 388.275200
   1724   1736   1738     1   109.5600471 388.275200
   1725   1724   1736     1   109.8000471 387.438400
   1725   1724   1726     1   107.5800459 329.699200
   1726   1724   1736     1   109.8000471 387.438400
   1727   1733   1734     1   109.5600471 388.275200
   1727   1733   1735     1   109.5600471 388.275200
   1728   1727   1733     1   109.8000471 387.438400
   1728   1727   1729     1   107.5800459 329.699200
   1729   1727   1733     1   109.8000471 387.438400
   1731   1730   1739     1   109.7800468 425.094400
   1731   1730   1732     1   108.4600466 328.025600
   1732   1730   1739     1   109.7800468 425.094400
   1734   1733   3626     1   109.7800468 425.094400
   1734   1733   1735     1   108.4600466 328.025600
   1735   1733   3626     1   109.7800468 425.094400
   1737   1736   3657     1   109.7800468 425.094400
   1737   1736   1738     1   108.4600466 328.025600
   1738   1736   3657     1   109.7800468 425.094400
   1740   1741   1742     1   109.8800469 414.216000
   1740   1741   1743     1   109.8800469 414.216000
   1740   1744   1745     1   109.8800469 414.216000
   1740   1744   1746     1   109.8800469 414.216000
   1740   1747   1748     1   109.8800469 414.216000
   1740   1747   1749     1   109.8800469 414.216000
   1741   1753   1754     1   109.8000471 387.438400
   1741   1753   1755     1   109.8000471 387.438400
   1742   1741   1753     1   109.5600471 388.275200
   1742   1741   1743     1   108.4600466 328.025600
   1743   1741   1753     1   109.5600471 388.275200
   1744   1756   1757     1   109.8000471 387.438400
   1744   1756   1758     1   109.8000471 387.438400
   1745   1744   1756     1   109.5600471 388.275200
   1745   1744   1746     1   108.4600466 328.025600
   1746   1744   1756     1   109.5600471 388.275200
   1747   1750   1751     1   109.8000471 387.438400
   1747   1750   1752     1   109.8000471 387.438400
   1748   1747   1750     1   109.5600471 388.275200
   1748   1747   1749     1   108.4600466 328.025600
   1749   1747   1750     1   109.5600471 388.275200
   1750   1759   1760     1   109.5600471 388.275200
   1750   1759   1761     1   109.5600471 388.275200
   1751   1750   1759     1   109.8000471 387.438400
   1751   1750   1752     1   107.5800459 329.699200
   1752   1750   1759     1   109.8000471 387.438400
   1753   1765   1766     1   109.5600471 388.275200
   1753   1765   1767     1   109.5600471 388.275200
   1754   1753   1765     1   109.8000471 387.438400
   1754   1753   1755     1   107.5800459 329.699200
   1755   1753   1765     1   109.8000471 387.438400
   1756   1762   1763     1   109.5600471 388.275200
   1756   1762   1764     1   109.5600471 388.275200
   1757   1756   1762     1   109.8000471 387.438400
   1757   1756   1758     1   107.5800459 329.699200
   1758   1756   1762     1   109.8000471 387.438400
   1760   1759   1768     1   109.7800468 425.094400
   1760   1759   1761     1   108.4600466 328.025600
   1761   1759   1768     1   109.7800468 425.094400
   1763   1762   3688     1   109.7800468 425.094400
   1763   1762   1764     1   108.4600466 328.025600
   1764   1762   3688     1   109.7800468 425.094400
   1766   1765   3719     1   109.7800468 425.094400
   1766   1765   1767     1   108.4600466 328.025600
   1767   1765   3719     1   109.7800468 425.094400
   1769   1770   1771     1   109.8800469 414.216000
   1769   1770   1772     1   109.8800469 414.216000
   1769   1773   1774     1   109.8800469 414.216000
   1769   1773   1775     1   109.8800469 414.216000
   1769   1776   1777     1   109.8800469 414.216000
   1769   1776   1778     1   109.8800469 414.216000
   1770   1782   1783     1   109.8000471 387.438400
   1770   1782   1784     1   109.8000471 387.438400
   1771   1770   1782     1   109.5600471 388.275200
   1771   1770   1772     1   108.4600466 328.025600
   1772   1770   1782     1   109.5600471 388.275200
   1773   1785   1786     1   109.8000471 387.438400
   1773   1785   1787     1   109.8000471 387.438400
   1774   1773   1785     1   109.5600471 388.275200
   1774   1773   1775     1   108.4600466 328.025600
   1775   1773   1785     1   109.5600471 388.275200
   1776   1779   1780     1   109.8000471 387.438400
   1776   1779   1781     1   109.8000471 387.438400
   1777   1776   1779     1   109.5600471 388.275200
   1777   1776   1778     1   108.4600466 328.025600
   1778   1776   1779     1   109.5600471 388.275200
   1779   1788   1789     1   109.5600471 388.275200
   1779   1788   1790     1   109.5600471 388.275200
   1780   1779   1788     1   109.8000471 387.438400
   1780   1779   1781     1   107.5800459 329.699200
   1781   1779   1788     1   109.8000471 387.438400
   1782   1794   1795     1   109.5600471 388.275200
   1782   1794   1796     1   109.5600471 388.275200
   1783   1782   1794     1   109.8000471 387.438400
   1783   1782   1784     1   107.5800459 329.699200
   1784   1782   1794     1   109.8000471 387.438400
   1785   1791   1792     1   109.5600471 388.275200
   1785   1791   1793     1   109.5600471 388.275200
   1786   1785   1791     1   109.8000471 387.438400
   1786   1785   1787     1   107.5800459 329.699200
   1787   1785   1791     1   109.8000471 387.438400
   1789   1788   1797     1   109.7800468 425.094400
   1789   1788   1790     1   108.4600466 328.025600
   1790   1788   1797     1   109.7800468 425.094400
   1792   1791   3750     1   109.7800468 425.094400
   1792   1791   1793     1   108.4600466 328.025600
   1793   1791   3750     1   109.7800468 425.094400
   1795   1794   3781     1   109.7800468 425.094400
   1795   1794   1796     1   108.4600466 328.025600
   1796   1794   3781     1   109.7800468 425.094400
   1798   1801   1802     1   109.8000471 387.438400
   1798   1801   1803     1   109.8000471 387.438400
   1799   1798   1801     1   109.5600471 388.275200
   1799   1798   1828     1   109.7800468 425.094400
   1799   1798   1800     1   108.4600466 328.025600
   1800   1798   1801     1   109.5600471 388.275200
   1800   1798   1828     1   109.7800468 425.094400
   1801   1804   1805     1   109.5600471 388.275200
   1801   1804   1806     1   109.5600471 388.275200
   1802   1801   1804     1   109.8000471 387.438400
   1802   1801   1803     1   107.5800459 329.699200
   1803   1801   1804     1   109.8000471 387.438400
   1805   1804   1807     1   109.8800469 414.216000
   1805   1804   1806     1   108.4600466 328.025600
   1806   1804   1807     1   109.8800469 414.216000
   1807   1808   1809     1   109.8800469 414.216000
   1807   1808   1810     1   109.8800469 414.216000
   1807   1818   1819     1   109.8800469 414.216000
   1807   1818   1820     1   109.8800469 414.216000
   1808   1811   1812     1   109.8000471 387.438400
   1808   1811   1813     1   109.8000471 387.438400
   1809   1808   1811     1   109.5600471 388.275200
   1809   1808   1810     1   108.4600466 328.025600
   1810   1808   1811     1   109.5600471 388.275200
   1812   1811   1814     1   108.7700466 392.459200
   1812   1811   1813     1   107.5800459 329.699200
   1813   1811   1814     1   108.7700466 392.459200
   1814   1816   1817     1   106.5500460 417.563200
   1818   1821   1822     1   109.8000471 387.438400
   1818   1821   1823     1   109.8000471 387.438400
   1819   1818   1821     1   109.5600471 388.275200
   1819   1818   1820     1   108.4600466 328.025600
   1820   1818   1821     1   109.5600471 388.275200
   1822   1821   1824     1   108.7700466 392.459200
   1822   1821   1823     1   107.5800459 329.699200
   1823   1821   1824     1   108.7700466 392.459200
   1824   1826   1827     1   106.5500460 417.563200
   1829   1832   1833     1   109.8000471 387.438400
   1829   1832   1834     1   109.8000471 387.438400
   1830   1829   1832     1   109.5600471 388.275200
   1830   1829   1859     1   109.7800468 425.094400
   1830   1829   1831     1   108.4600466 328.025600
   1831   1829   1832     1   109.5600471 388.275200
   1831   1829   1859     1   109.7800468 425.094400
   1832   1835   1836     1   109.5600471 388.275200
   1832   1835   1837     1   109.5600471 388.275200
   1833   1832   1835     1   109.8000471 387.438400
   1833   1832   1834     1   107.5800459 329.699200
   1834   1832   1835     1   109.8000471 387.438400
   1836   1835   1838     1   109.8800469 414.216000
   1836   1835   1837     1   108.4600466 328.025600
   1837   1835   1838     1   109.8800469 414.216000
   1838   1839   1840     1   109.8800469 414.216000
   1838   1839   1841     1   109.8800469 414.216000
   1838   1849   1850     1   109.8800469 414.216000
   1838   1849   1851     1   109.8800469 414.216000
   1839   1842   1843     1   109.8000471 387.438400
   1839   1842   1844     1   109.8000471 387.438400
   1840   1839   1842     1   109.5600471 388.275200
   1840   1839   1841     1   108.4600466 328.025600
   1841   1839   1842     1   109.5600471 388.275200
   1843   1842   1845     1   108.7700466 392.459200
   1843   1842   1844     1   107.5800459 329.699200
   1844   1842   1845     1   108.7700466 392.459200
   1845   1847   1848     1   106.5500460 417.563200
   1849   1852   1853     1   109.8000471 387.438400
   1849   1852   1854     1   109.8000471 387.438400
   1850   1849   1852     1   109.5600471 388.275200
   1850   1849   1851     1   108.4600466 328.025600
   1851   1849   1852     1   109.5600471 388.275200
   1853   1852   1855     1   108.7700466 392.459200
   1853   1852   1854     1   107.5800459 329.699200
   1854   1852   1855     1   108.7700466 392.459200
   1855   1857   1858     1   106.5500460 417.563200
   1860   1863   1864     1   109.8000471 387.438400
   1860   1863   1865     1   109.8000471 387.438400
   1861   1860   1863     1   109.5600471 388.275200
   1861   1860   1890     1   109.7800468 425.094400
   1861   1860   1862     1   108.4600466 328.025600
   1862   1860   1863     1   109.5600471 388.275200
   1862   1860   1890     1   109.7800468 425.094400
   1863   1866   1867     1   109.5600471 388.275200
   1863   1866   1868     1   109.5600471 388.275200
   1864   1863   1866     1   109.8000471 387.438400
   1864   1863   1865     1   107.5800459 329.699200
   1865   1863   1866     1   109.8000471 387.438400
   1867   1866   1869     1   109.8800469 414.216000
   1867   1866   1868     1   108.4600466 328.025600
   1868   1866   1869     1   109.8800469 414.216000
   1869   1870   1871     1   109.8800469 414.216000
   1869   1870   1872     1   109.8800469 414.216000
   1869   1880   1881     1   109.8800469 414.216000
   1869   1880   1882     1   109.8800469 414.216000
   1870   1873   1874     1   109.8000471 387.438400
   1870   1873   1875     1   109.8000471 387.438400
   1871   1870   1873     1   109.5600471 388.275200
   1871   1870   1872     1   108.4600466 328.025600
   1872   1870   1873     1   109.5600471 388.275200
   1874   1873   1876     1   108.7700466 392.459200
   1874   1873   1875     1   107.5800459 329.699200
   1875   1873   1876     1   108.7700466 392.459200
   1876   1878   1879     1   106.5500460 417.563200
   1880   1883   1884     1   109.8000471 387.438400
   1880   1883   1885     1   109.8000471 387.438400
   1881   1880   1883     1   109.5600471 388.275200
   1881   1880   1882     1   108.4600466 328.025600
   1882   1880   1883     1   109.5600471 388.275200
   1884   1883   1886     1   108.7700466 392.459200
   1884   1883   1885     1   107.5800459 329.699200
   1885   1883   1886     1   108.7700466 392.459200
   1886   1888   1889     1   106.5500460 417.563200
   1891   1894   1895     1   109.8000471 387.438400
   1891   1894   1896     1   109.8000471 387.438400
   1892   1891   1894     1   109.5600471 388.275200
   1892   1891   1921     1   109.7800468 425.094400
   1892   1891   1893     1   108.4600466 328.025600
   1893   1891   1894     1   109.5600471 388.275200
   1893   1891   1921     1   109.7800468 425.094400
   1894   1897   1898     1   109.5600471 388.275200
   1894   1897   1899     1   109.5600471 388.275200
   1895   1894   1897     1   109.8000471 387.438400
   1895   1894   1896     1   107.5800459 329.699200
   1896   1894   1897     1   109.8000471 387.438400
   1898   1897   1900     1   109.8800469 414.216000
   1898   1897   1899     1   108.4600466 328.025600
   1899   1897   1900     1   109.8800469 414.216000
   1900   1901   1902     1   109.8800469 414.216000
   1900   1901   1903     1   109.8800469 414.216000
   1900   1911   1912     1   109.8800469 414.216000
   1900   1911   1913     1   109.8800469 414.216000
   1901   1904   1905     1   109.8000471 387.438400
   1901   1904   1906     1   109.8000471 387.438400
   1902   1901   1904     1   109.5600471 388.275200
   1902   1901   1903     1   108.4600466 328.025600
   1903   1901   1904     1   109.5600471 388.275200
   1905   1904   1907     1   108.7700466 392.459200
   1905   1904   1906     1   107.5800459 329.699200
   1906   1904   1907     1   108.7700466 392.459200
   1907   1909   1910     1   106.5500460 417.563200
   1911   1914   1915     1   109.8000471 387.438400
   1911   1914   1916     1   109.8000471 387.438400
   1912   1911   1914     1   109.5600471 388.275200
   1912   1911   1913     1   108.4600466 328.025600
   1913   1911   1914     1   109.5600471 388.275200
   1915   1914   1917     1   108.7700466 392.459200
   1915   1914   1916     1   107.5800459 329.699200
   1916   1914   1917     1   108.7700466 392.459200
   1917   1919   1920     1   106.5500460 417.563200
   1922   1925   1926     1   109.8000471 387.438400
   1922   1925   1927     1   109.8000471 387.438400
   1923   1922   1925     1   109.5600471 388.275200
   1923   1922   1952     1   109.7800468 425.094400
   1923   1922   1924     1   108.4600466 328.025600
   1924   1922   1925     1   109.5600471 388.275200
   1924   1922   1952     1   109.7800468 425.094400
   1925   1928   1929     1   109.5600471 388.275200
   1925   1928   1930     1   109.5600471 388.275200
   1926   1925   1928     1   109.8000471 387.438400
   1926   1925   1927     1   107.5800459 329.699200
   1927   1925   1928     1   109.8000471 387.438400
   1929   1928   1931     1   109.8800469 414.216000
   1929   1928   1930     1   108.4600466 328.025600
   1930   1928   1931     1   109.8800469 414.216000
   1931   1932   1933     1   109.8800469 414.216000
   1931   1932   1934     1   109.8800469 414.216000
   1931   1942   1943     1   109.8800469 414.216000
   1931   1942   1944     1   109.8800469 414.216000
   1932   1935   1936     1   109.8000471 387.438400
   1932   1935   1937     1   109.8000471 387.438400
   1933   1932   1935     1   109.5600471 388.275200
   1933   1932   1934     1   108.4600466 328.025600
   1934   1932   1935     1   109.5600471 388.275200
   1936   1935   1938     1   108.7700466 392.459200
   1936   1935   1937     1   107.5800459 329.699200
   1937   1935   1938     1   108.7700466 392.459200
   1938   1940   1941     1   106.5500460 417.563200
   1942   1945   1946     1   109.8000471 387.438400
   1942   1945   1947     1   109.8000471 387.438400
   1943   1942   1945     1   109.5600471 388.275200
   1943   1942   1944     1   108.4600466 328.025600
   1944   1942   1945     1   109.5600471 388.275200
   1946   1945   1948     1   108.7700466 392.459200
   1946   1945   1947     1   107.5800459 329.699200
   1947   1945   1948     1   108.7700466 392.459200
   1948   1950   1951     1   106.5500460 417.563200
   1953   1956   1957     1   109.8000471 387.438400
   1953   1956   1958     1   109.8000471 387.438400
   1954   1953   1956     1   109.5600471 388.275200
   1954   1953   1983     1   109.7800468 425.094400
   1954   1953   1955     1   108.4600466 328.025600
   1955   1953   1956     1   109.5600471 388.275200
   1955   1953   1983     1   109.7800468 425.094400
   1956   1959   1960     1   109.5600471 388.275200
   1956   1959   1961     1   109.5600471 388.275200
   1957   1956   1959     1   109.8000471 387.438400
   1957   1956   1958     1   107.5800459 329.699200
   1958   1956   1959     1   109.8000471 387.438400
   1960   1959   1962     1   109.8800469 414.216000
   1960   1959   1961     1   108.4600466 328.025600
   1961   1959   1962     1   109.8800469 414.216000
   1962   1963   1964     1   109.8800469 414.216000
   1962   1963   1965     1   109.8800469 414.216000
   1962   1973   1974     1   109.8800469 414.216000
   1962   1973   1975     1   109.8800469 414.216000
   1963   1966   1967     1   109.8000471 387.438400
   1963   1966   1968     1   109.8000471 387.438400
   1964   1963   1966     1   109.5600471 388.275200
   1964   1963   1965     1   108.4600466 328.025600
   1965   1963   1966     1   109.5600471 388.275200
   1967   1966   1969     1   108.7700466 392.459200
   1967   1966   1968     1   107.5800459 329.699200
   1968   1966   1969     1   108.7700466 392.459200
   1969   1971   1972     1   106.5500460 417.563200
   1973   1976   1977     1   109.8000471 387.438400
   1973   1976   1978     1   109.8000471 387.438400
   1974   1973   1976     1   109.5600471 388.275200
   1974   1973   1975     1   108.4600466 328.025600
   1975   1973   1976     1   109.5600471 388.275200
   1977   1976   1979     1   108.7700466 392.459200
   1977   1976   1978     1   107.5800459 329.699200
   1978   1976   1979     1   108.7700466 392.459200
   1979   1981   1982     1   106.5500460 417.563200
   1984   1987   1988     1   109.8000471 387.438400
   1984   1987   1989     1   109.8000471 387.438400
   1985   1984   1987     1   109.5600471 388.275200
   1985   1984   2014     1   109.7800468 425.094400
   1985   1984   1986     1   108.4600466 328.025600
   1986   1984   1987     1   109.5600471 388.275200
   1986   1984   2014     1   109.7800468 425.094400
   1987   1990   1991     1   109.5600471 388.275200
   1987   1990   1992     1   109.5600471 388.275200
   1988   1987   1990     1   109.8000471 387.438400
   1988   1987   1989     1   107.5800459 329.699200
   1989   1987   1990     1   109.8000471 387.438400
   1991   1990   1993     1   109.8800469 414.216000
   1991   1990   1992     1   108.4600466 328.025600
   1992   1990   1993     1   109.8800469 414.216000
   1993   1994   1995     1   109.8800469 414.216000
   1993   1994   1996     1   109.8800469 414.216000
   1993   2004   2005     1   109.8800469 414.216000
   1993   2004   2006     1   109.8800469 414.216000
   1994   1997   1998     1   109.8000471 387.438400
   1994   1997   1999     1   109.8000471 387.438400
   1995   1994   1997     1   109.5600471 388.275200
   1995   1994   1996     1   108.4600466 328.025600
   1996   1994   1997     1   109.5600471 388.275200
   1998   1997   2000     1   108.7700466 392.459200
   1998   1997   1999     1   107.5800459 329.699200
   1999   1997   2000     1   108.7700466 392.459200
   2000   2002   2003     1   106.5500460 417.563200
   2004   2007   2008     1   109.8000471 387.438400
   2004   2007   2009     1   109.8000471 387.438400
   2005   2004   2007     1   109.5600471 388.275200
   2005   2004   2006     1   108.4600466 328.025600
   2006   2004   2007     1   109.5600471 388.275200
   2008   2007   2010     1   108.7700466 392.459200
   2008   2007   2009     1   107.5800459 329.699200
   2009   2007   2010     1   108.7700466 392.459200
   2010   2012   2013     1   106.5500460 417.563200
   2015   2018   2019     1   109.8000471 387.438400
   2015   2018   2020     1   109.8000471 387.438400
   2016   2015   2018     1   109.5600471 388.275200
   2016   2015   2045     1   109.7800468 425.094400
   2016   2015   2017     1   108.4600466 328.025600
   2017   2015   2018     1   109.5600471 388.275200
   2017   2015   2045     1   109.7800468 425.094400
   2018   2021   2022     1   109.5600471 388.275200
   2018   2021   2023     1   109.5600471 388.275200
   2019   2018   2021     1   109.8000471 387.438400
   2019   2018   2020     1   107.5800459 329.699200
   2020   2018   2021     1   109.8000471 387.438400
   2022   2021   2024     1   109.8800469 414.216000
   2022   2021   2023     1   108.4600466 328.025600
   2023   2021   2024     1   109.8800469 414.216000
   2024   2025   2026     1   109.8800469 414.216000
   2024   2025   2027     1   109.8800469 414.216000
   2024   2035   2036     1   109.8800469 414.216000
   2024   2035   2037     1   109.8800469 414.216000
   2025   2028   2029     1   109.8000471 387.438400
   2025   2028   2030     1   109.8000471 387.438400
   2026   2025   2028     1   109.5600471 388.275200
   2026   2025   2027     1   108.4600466 328.025600
   2027   2025   2028     1   109.5600471 388.275200
   2029   2028   2031     1   108.7700466 392.459200
   2029   2028   2030     1   107.5800459 329.699200
   2030   2028   2031     1   108.7700466 392.459200
   2031   2033   2034     1   106.5500460 417.563200
   2035   2038   2039     1   109.8000471 387.438400
   2035   2038   2040     1   109.8000471 387.438400
   2036   2035   2038     1   109.5600471 388.275200
   2036   2035   2037     1   108.4600466 328.025600
   2037   2035   2038     1   109.5600471 388.275200
   2039   2038   2041     1   108.7700466 392.459200
   2039   2038   2040     1   107.5800459 329.699200
   2040   2038   2041     1   108.7700466 392.459200
   2041   2043   2044     1   106.5500460 417.563200
   2046   2049   2050     1   109.8000471 387.438400
   2046   2049   2051     1   109.8000471 387.438400
   2047   2046   2049     1   109.5600471 388.275200
   2047   2046   2076     1   109.7800468 425.094400
   2047   2046   2048     1   108.4600466 328.025600
   2048   2046   2049     1   109.5600471 388.275200
   2048   2046   2076     1   109.7800468 425.094400
   2049   2052   2053     1   109.5600471 388.275200
   2049   2052   2054     1   109.5600471 388.275200
   2050   2049   2052     1   109.8000471 387.438400
   2050   2049   2051     1   107.5800459 329.699200
   2051   2049   2052     1   109.8000471 387.438400
   2053   2052   2055     1   109.8800469 414.216000
   2053   2052   2054     1   108.4600466 328.025600
   2054   2052   2055     1   109.8800469 414.216000
   2055   2056   2057     1   109.8800469 414.216000
   2055   2056   2058     1   109.8800469 414.216000
   2055   2066   2067     1   109.8800469 414.216000
   2055   2066   2068     1   109.8800469 414.216000
   2056   2059   2060     1   109.8000471 387.438400
   2056   2059   2061     1   109.8000471 387.438400
   2057   2056   2059     1   109.5600471 388.275200
   2057   2056   2058     1   108.4600466 328.025600
   2058   2056   2059     1   109.5600471 388.275200
   2060   2059   2062     1   108.7700466 392.459200
   2060   2059   2061     1   107.5800459 329.699200
   2061   2059   2062     1   108.7700466 392.459200
   2062   2064   2065     1   106.5500460 417.563200
   2066   2069   2070     1   109.8000471 387.438400
   2066   2069   2071     1   109.8000471 387.438400
   2067   2066   2069     1   109.5600471 388.275200
   2067   2066   2068     1   108.4600466 328.025600
   2068   2066   2069     1   109.5600471 388.275200
   2070   2069   2072     1   108.7700466 392.459200
   2070   2069   2071     1   107.5800459 329.699200
   2071   2069   2072     1   108.7700466 392.459200
   2072   2074   2075     1   106.5500460 417.563200
   2077   2080   2081     1   109.8000471 387.438400
   2077   2080   2082     1   109.8000471 387.438400
   2078   2077   2080     1   109.5600471 388.275200
   2078   2077   2107     1   109.7800468 425.094400
   2078   2077   2079     1   108.4600466 328.025600
   2079   2077   2080     1   109.5600471 388.275200
   2079   2077   2107     1   109.7800468 425.094400
   2080   2083   2084     1   109.5600471 388.275200
   2080   2083   2085     1   109.5600471 388.275200
   2081   2080   2083     1   109.8000471 387.438400
   2081   2080   2082     1   107.5800459 329.699200
   2082   2080   2083     1   109.8000471 387.438400
   2084   2083   2086     1   109.8800469 414.216000
   2084   2083   2085     1   108.4600466 328.025600
   2085   2083   2086     1   109.8800469 414.216000
   2086   2087   2088     1   109.8800469 414.216000
   2086   2087   2089     1   109.8800469 414.216000
   2086   2097   2098     1   109.8800469 414.216000
   2086   2097   2099     1   109.8800469 414.216000
   2087   2090   2091     1   109.8000471 387.438400
   2087   2090   2092     1   109.8000471 387.438400
   2088   2087   2090     1   109.5600471 388.275200
   2088   2087   2089     1   108.4600466 328.025600
   2089   2087   2090     1   109.5600471 388.275200
   2091   2090   2093     1   108.7700466 392.459200
   2091   2090   2092     1   107.5800459 329.699200
   2092   2090   2093     1   108.7700466 392.459200
   2093   2095   2096     1   106.5500460 417.563200
   2097   2100   2101     1   109.8000471 387.438400
   2097   2100   2102     1   109.8000471 387.438400
   2098   2097   2100     1   109.5600471 388.275200
   2098   2097   2099     1   108.4600466 328.025600
   2099   2097   2100     1   109.5600471 388.275200
   2101   2100   2103     1   108.7700466 392.459200
   2101   2100   2102     1   107.5800459 329.699200
   2102   2100   2103     1   108.7700466 392.459200
   2103   2105   2106     1   106.5500460 417.563200
   2108   2111   2112     1   109.8000471 387.438400
   2108   2111   2113     1   109.8000471 387.438400
   2109   2108   2111     1   109.5600471 388.275200
   2109   2108   2138     1   109.7800468 425.094400
   2109   2108   2110     1   108.4600466 328.025600
   2110   2108   2111     1   109.5600471 388.275200
   2110   2108   2138     1   109.7800468 425.094400
   2111   2114   2115     1   109.5600471 388.275200
   2111   2114   2116     1   109.5600471 388.275200
   2112   2111   2114     1   109.8000471 387.438400
   2112   2111   2113     1   107.5800459 329.699200
   2113   2111   2114     1   109.8000471 387.438400
   2115   2114   2117     1   109.8800469 414.216000
   2115   2114   2116     1   108.4600466 328.025600
   2116   2114   2117     1   109.8800469 414.216000
   2117   2118   2119     1   109.8800469 414.216000
   2117   2118   2120     1   109.8800469 414.216000
   2117   2128   2129     1   109.8800469 414.216000
   2117   2128   2130     1   109.8800469 414.216000
   2118   2121   2122     1   109.8000471 387.438400
   2118   2121   2123     1   109.8000471 387.438400
   2119   2118   2121     1   109.5600471 388.275200
   2119   2118   2120     1   108.4600466 328.025600
   2120   2118   2121     1   109.5600471 388.275200
   2122   2121   2124     1   108.7700466 392.459200
   2122   2121   2123     1   107.5800459 329.699200
   2123   2121   2124     1   108.7700466 392.459200
   2124   2126   2127     1   106.5500460 417.563200
   2128   2131   2132     1   109.8000471 387.438400
   2128   2131   2133     1   109.8000471 387.438400
   2129   2128   2131     1   109.5600471 388.275200
   2129   2128   2130     1   108.4600466 328.025600
   2130   2128   2131     1   109.5600471 388.275200
   2132   2131   2134     1   108.7700466 392.459200
   2132   2131   2133     1   107.5800459 329.699200
   2133   2131   2134     1   108.7700466 392.459200
   2134   2136   2137     1   106.5500460 417.563200
   2139   2142   2143     1   109.8000471 387.438400
   2139   2142   2144     1   109.8000471 387.438400
   2140   2139   2142     1   109.5600471 388.275200
   2140   2139   2169     1   109.7800468 425.094400
   2140   2139   2141     1   108.4600466 328.025600
   2141   2139   2142     1   109.5600471 388.275200
   2141   2139   2169     1   109.7800468 425.094400
   2142   2145   2146     1   109.5600471 388.275200
   2142   2145   2147     1   109.5600471 388.275200
   2143   2142   2145     1   109.8000471 387.438400
   2143   2142   2144     1   107.5800459 329.699200
   2144   2142   2145     1   109.8000471 387.438400
   2146   2145   2148     1   109.8800469 414.216000
   2146   2145   2147     1   108.4600466 328.025600
   2147   2145   2148     1   109.8800469 414.216000
   2148   2149   2150     1   109.8800469 414.216000
   2148   2149   2151     1   109.8800469 414.216000
   2148   2159   2160     1   109.8800469 414.216000
   2148   2159   2161     1   109.8800469 414.216000
   2149   2152   2153     1   109.8000471 387.438400
   2149   2152   2154     1   109.8000471 387.438400
   2150   2149   2152     1   109.5600471 388.275200
   2150   2149   2151     1   108.4600466 328.025600
   2151   2149   2152     1   109.5600471 388.275200
   2153   2152   2155     1   108.7700466 392.459200
   2153   2152   2154     1   107.5800459 329.699200
   2154   2152   2155     1   108.7700466 392.459200
   2155   2157   2158     1   106.5500460 417.563200
   2159   2162   2163     1   109.8000471 387.438400
   2159   2162   2164     1   109.8000471 387.438400
   2160   2159   2162     1   109.5600471 388.275200
   2160   2159   2161     1   108.4600466 328.025600
   2161   2159   2162     1   109.5600471 388.275200
   2163   2162   2165     1   108.7700466 392.459200
   2163   2162   2164     1   107.5800459 329.699200
   2164   2162   2165     1   108.7700466 392.459200
   2165   2167   2168     1   106.5500460 417.563200
   2170   2173   2174     1   109.8000471 387.438400
   2170   2173   2175     1   109.8000471 387.438400
   2171   2170   2173     1   109.5600471 388.275200
   2171   2170   2200     1   109.7800468 425.094400
   2171   2170   2172     1   108.4600466 328.025600
   2172   2170   2173     1   109.5600471 388.275200
   2172   2170   2200     1   109.7800468 425.094400
   2173   2176   2177     1   109.5600471 388.275200
   2173   2176   2178     1   109.5600471 388.275200
   2174   2173   2176     1   109.8000471 387.438400
   2174   2173   2175     1   107.5800459 329.699200
   2175   2173   2176     1   109.8000471 387.438400
   2177   2176   2179     1   109.8800469 414.216000
   2177   2176   2178     1   108.4600466 328.025600
   2178   2176   2179     1   109.8800469 414.216000
   2179   2180   2181     1   109.8800469 414.216000
   2179   2180   2182     1   109.8800469 414.216000
   2179   2190   2191     1   109.8800469 414.216000
   2179   2190   2192     1   109.8800469 414.216000
   2180   2183   2184     1   109.8000471 387.438400
   2180   2183   2185     1   109.8000471 387.438400
   2181   2180   2183     1   109.5600471 388.275200
   2181   2180   2182     1   108.4600466 328.025600
   2182   2180   2183     1   109.5600471 388.275200
   2184   2183   2186     1   108.7700466 392.459200
   2184   2183   2185     1   107.5800459 329.699200
   2185   2183   2186     1   108.7700466 392.459200
   2186   2188   2189     1   106.5500460 417.563200
   2190   2193   2194     1   109.8000471 387.438400
   2190   2193   2195     1   109.8000471 387.438400
   2191   2190   2193     1   109.5600471 388.275200
   2191   2190   2192     1   108.4600466 328.025600
   2192   2190   2193     1   109.5600471 388.275200
   2194   2193   2196     1   108.7700466 392.459200
   2194   2193   2195     1   107.5800459 329.699200
   2195   2193   2196     1   108.7700466 392.459200
   2196   2198   2199     1   106.5500460 417.563200
   2201   2204   2205     1   109.8000471 387.438400
   2201   2204   2206     1   109.8000471 387.438400
   2202   2201   2204     1   109.5600471 388.275200
   2202   2201   2231     1   109.7800468 425.094400
   2202   2201   2203     1   108.4600466 328.025600
   2203   2201   2204     1   109.5600471 388.275200
   2203   2201   2231     1   109.7800468 425.094400
   2204   2207   2208     1   109.5600471 388.275200
   2204   2207   2209     1   109.5600471 388.275200
   2205   2204   2207     1   109.8000471 387.438400
   2205   2204   2206     1   107.5800459 329.699200
   2206   2204   2207     1   109.8000471 387.438400
   2208   2207   2210     1   109.8800469 414.216000
   2208   2207   2209     1   108.4600466 328.025600
   2209   2207   2210     1   109.8800469 414.216000
   2210   2211   2212     1   109.8800469 414.216000
   2210   2211   2213     1   109.8800469 414.216000
   2210   2221   2222     1   109.8800469 414.216000
   2210   2221   2223     1   109.8800469 414.216000
   2211   2214   2215     1   109.8000471 387.438400
   2211   2214   2216     1   109.8000471 387.438400
   2212   2211   2214     1   109.5600471 388.275200
   2212   2211   2213     1   108.4600466 328.025600
   2213   2211   2214     1   109.5600471 388.275200
   2215   2214   2217     1   108.7700466 392.459200
   2215   2214   2216     1   107.5800459 329.699200
   2216   2214   2217     1   108.7700466 392.459200
   2217   2219   2220     1   106.5500460 417.563200
   2221   2224   2225     1   109.8000471 387.438400
   2221   2224   2226     1   109.8000471 387.438400
   2222   2221   2224     1   109.5600471 388.275200
   2222   2221   2223     1   108.4600466 328.025600
   2223   2221   2224     1   109.5600471 388.275200
   2225   2224   2227     1   108.7700466 392.459200
   2225   2224   2226     1   107.5800459 329.699200
   2226   2224   2227     1   108.7700466 392.459200
   2227   2229   2230     1   106.5500460 417.563200
   2232   2235   2236     1   109.8000471 387.438400
   2232   2235   2237     1   109.8000471 387.438400
   2233   2232   2235     1   109.5600471 388.275200
   2233   2232   2262     1   109.7800468 425.094400
   2233   2232   2234     1   108.4600466 328.025600
   2234   2232   2235     1   109.5600471 388.275200
   2234   2232   2262     1   109.7800468 425.094400
   2235   2238   2239     1   109.5600471 388.275200
   2235   2238   2240     1   109.5600471 388.275200
   2236   2235   2238     1   109.8000471 387.438400
   2236   2235   2237     1   107.5800459 329.699200
   2237   2235   2238     1   109.8000471 387.438400
   2239   2238   2241     1   109.8800469 414.216000
   2239   2238   2240     1   108.4600466 328.025600
   2240   2238   2241     1   109.8800469 414.216000
   2241   2242   2243     1   109.8800469 414.216000
   2241   2242   2244     1   109.8800469 414.216000
   2241   2252   2253     1   109.8800469 414.216000
   2241   2252   2254     1   109.8800469 414.216000
   2242   2245   2246     1   109.8000471 387.438400
   2242   2245   2247     1   109.8000471 387.438400
   2243   2242   2245     1   109.5600471 388.275200
   2243   2242   2244     1   108.4600466 328.025600
   2244   2242   2245     1   109.5600471 388.275200
   2246   2245   2248     1   108.7700466 392.459200
   2246   2245   2247     1   107.5800459 329.699200
   2247   2245   2248     1   108.7700466 392.459200
   2248   2250   2251     1   106.5500460 417.563200
   2252   2255   2256     1   109.8000471 387.438400
   2252   2255   2257     1   109.8000471 387.438400
   2253   2252   2255     1   109.5600471 388.275200
   2253   2252   2254     1   108.4600466 328.025600
   2254   2252   2255     1   109.5600471 388.275200
   2256   2255   2258     1   108.7700466 392.459200
   2256   2255   2257     1   107.5800459 329.699200
   2257   2255   2258     1   108.7700466 392.459200
   2258   2260   2261     1   106.5500460 417.563200
   2263   2266   2267     1   109.8000471 387.438400
   2263   2266   2268     1   109.8000471 387.438400
   2264   2263   2266     1   109.5600471 388.275200
   2264   2263   2293     1   109.7800468 425.094400
   2264   2263   2265     1   108.4600466 328.025600
   2265   2263   2266     1   109.5600471 388.275200
   2265   2263   2293     1   109.7800468 425.094400
   2266   2269   2270     1   109.5600471 388.275200
   2266   2269   2271     1   109.5600471 388.275200
   2267   2266   2269     1   109.8000471 387.438400
   2267   2266   2268     1   107.5800459 329.699200
   2268   2266   2269     1   109.8000471 387.438400
   2270   2269   2272     1   109.8800469 414.216000
   2270   2269   2271     1   108.4600466 328.025600
   2271   2269   2272     1   109.8800469 414.216000
   2272   2273   2274     1   109.8800469 414.216000
   2272   2273   2275     1   109.8800469 414.216000
   2272   2283   2284     1   109.8800469 414.216000
   2272   2283   2285     1   109.8800469 414.216000
   2273   2276   2277     1   109.8000471 387.438400
   2273   2276   2278     1   109.8000471 387.438400
   2274   2273   2276     1   109.5600471 388.275200
   2274   2273   2275     1   108.4600466 328.025600
   2275   2273   2276     1   109.5600471 388.275200
   2277   2276   2279     1   108.7700466 392.459200
   2277   2276   2278     1   107.5800459 329.699200
   2278   2276   2279     1   108.7700466 392.459200
   2279   2281   2282     1   106.5500460 417.563200
   2283   2286   2287     1   109.8000471 387.438400
   2283   2286   2288     1   109.8000471 387.438400
   2284   2283   2286     1   109.5600471 388.275200
   2284   2283   2285     1   108.4600466 328.025600
   2285   2283   2286     1   109.5600471 388.275200
   2287   2286   2289     1   108.7700466 392.459200
   2287   2286   2288     1   107.5800459 329.699200
   2288   2286   2289     1   108.7700466 392.459200
   2289   2291   2292     1   106.5500460 417.563200
   2294   2297   2298     1   109.8000471 387.438400
   2294   2297   2299     1   109.8000471 387.438400
   2295   2294   2297     1   109.5600471 388.275200
   2295   2294   2324     1   109.7800468 425.094400
   2295   2294   2296     1   108.4600466 328.025600
   2296   2294   2297     1   109.5600471 388.275200
   2296   2294   2324     1   109.7800468 425.094400
   2297   2300   2301     1   109.5600471 388.275200
   2297   2300   2302     1   109.5600471 388.275200
   2298   2297   2300     1   109.8000471 387.438400
   2298   2297   2299     1   107.5800459 329.699200
   2299   2297   2300     1   109.8000471 387.438400
   2301   2300   2303     1   109.8800469 414.216000
   2301   2300   2302     1   108.4600466 328.025600
   2302   2300   2303     1   109.8800469 414.216000
   2303   2304   2305     1   109.8800469 414.216000
   2303   2304   2306     1   109.8800469 414.216000
   2303   2314   2315     1   109.8800469 414.216000
   2303   2314   2316     1   109.8800469 414.216000
   2304   2307   2308     1   109.8000471 387.438400
   2304   2307   2309     1   109.8000471 387.438400
   2305   2304   2307     1   109.5600471 388.275200
   2305   2304   2306     1   108.4600466 328.025600
   2306   2304   2307     1   109.5600471 388.275200
   2308   2307   2310     1   108.7700466 392.459200
   2308   2307   2309     1   107.5800459 329.699200
   2309   2307   2310     1   108.7700466 392.459200
   2310   2312   2313     1   106.5500460 417.563200
   2314   2317   2318     1   109.8000471 387.438400
   2314   2317   2319     1   109.8000471 387.438400
   2315   2314   2317     1   109.5600471 388.275200
   2315   2314   2316     1   108.4600466 328.025600
   2316   2314   2317     1   109.5600471 388.275200
   2318   2317   2320     1   108.7700466 392.459200
   2318   2317   2319     1   107.5800459 329.699200
   2319   2317   2320     1   108.7700466 392.459200
   2320   2322   2323     1   106.5500460 417.563200
   2325   2328   2329     1   109.8000471 387.438400
   2325   2328   2330     1   109.8000471 387.438400
   2326   2325   2328     1   109.5600471 388.275200
   2326   2325   2355     1   109.7800468 425.094400
   2326   2325   2327     1   108.4600466 328.025600
   2327   2325   2328     1   109.5600471 388.275200
   2327   2325   2355     1   109.7800468 425.094400
   2328   2331   2332     1   109.5600471 388.275200
   2328   2331   2333     1   109.5600471 388.275200
   2329   2328   2331     1   109.8000471 387.438400
   2329   2328   2330     1   107.5800459 329.699200
   2330   2328   2331     1   109.8000471 387.438400
   2332   2331   2334     1   109.8800469 414.216000
   2332   2331   2333     1   108.4600466 328.025600
   2333   2331   2334     1   109.8800469 414.216000
   2334   2335   2336     1   109.8800469 414.216000
   2334   2335   2337     1   109.8800469 414.216000
   2334   2345   2346     1   109.8800469 414.216000
   2334   2345   2347     1   109.8800469 414.216000
   2335   2338   2339     1   109.8000471 387.438400
   2335   2338   2340     1   109.8000471 387.438400
   2336   2335   2338     1   109.5600471 388.275200
   2336   2335   2337     1   108.4600466 328.025600
   2337   2335   2338     1   109.5600471 388.275200
   2339   2338   2341     1   108.7700466 392.459200
   2339   2338   2340     1   107.5800459 329.699200
   2340   2338   2341     1   108.7700466 392.459200
   2341   2343   2344     1   106.5500460 417.563200
   2345   2348   2349     1   109.8000471 387.438400
   2345   2348   2350     1   109.8000471 387.438400
   2346   2345   2348     1   109.5600471 388.275200
   2346   2345   2347     1   108.4600466 328.025600
   2347   2345   2348     1   109.5600471 388.275200
   2349   2348   2351     1   108.7700466 392.459200
   2349   2348   2350     1   107.5800459 329.699200
   2350   2348   2351     1   108.7700466 392.459200
   2351   2353   2354     1   106.5500460 417.563200
   2356   2359   2360     1   109.8000471 387.438400
   2356   2359   2361     1   109.8000471 387.438400
   2357   2356   2359     1   109.5600471 388.275200
   2357   2356   2386     1   109.7800468 425.094400
   2357   2356   2358     1   108.4600466 328.025600
   2358   2356   2359     1   109.5600471 388.275200
   2358   2356   2386     1   109.7800468 425.094400
   2359   2362   2363     1   109.5600471 388.275200
   2359   2362   2364     1   109.5600471 388.275200
   2360   2359   2362     1   109.8000471 387.438400
   2360   2359   2361     1   107.5800459 329.699200
   2361   2359   2362     1   109.8000471 387.438400
   2363   2362   2365     1   109.8800469 414.216000
   2363   2362   2364     1   108.4600466 328.025600
   2364   2362   2365     1   109.8800469 414.216000
   2365   2366   2367     1   109.8800469 414.216000
   2365   2366   2368     1   109.8800469 414.216000
   2365   2376   2377     1   109.8800469 414.216000
   2365   2376   2378     1   109.8800469 414.216000
   2366   2369   2370     1   109.8000471 387.438400
   2366   2369   2371     1   109.8000471 387.438400
   2367   2366   2369     1   109.5600471 388.275200
   2367   2366   2368     1   108.4600466 328.025600
   2368   2366   2369     1   109.5600471 388.275200
   2370   2369   2372     1   108.7700466 392.459200
   2370   2369   2371     1   107.5800459 329.699200
   2371   2369   2372     1   108.7700466 392.459200
   2372   2374   2375     1   106.5500460 417.563200
   2376   2379   2380     1   109.8000471 387.438400
   2376   2379   2381     1   109.8000471 387.438400
   2377   2376   2379     1   109.5600471 388.275200
   2377   2376   2378     1   108.4600466 328.025600
   2378   2376   2379     1   109.5600471 388.275200
   2380   2379   2382     1   108.7700466 392.459200
   2380   2379   2381     1   107.5800459 329.699200
   2381   2379   2382     1   108.7700466 392.459200
   2382   2384   2385     1   106.5500460 417.563200
   2387   2390   2391     1   109.8000471 387.438400
   2387   2390   2392     1   109.8000471 387.438400
   2388   2387   2390     1   109.5600471 388.275200
   2388   2387   2417     1   109.7800468 425.094400
   2388   2387   2389     1   108.4600466 328.025600
   2389   2387   2390     1   109.5600471 388.275200
   2389   2387   2417     1   109.7800468 425.094400
   2390   2393   2394     1   109.5600471 388.275200
   2390   2393   2395     1   109.5600471 388.275200
   2391   2390   2393     1   109.8000471 387.438400
   2391   2390   2392     1   107.5800459 329.699200
   2392   2390   2393     1   109.8000471 387.438400
   2394   2393   2396     1   109.8800469 414.216000
   2394   2393   2395     1   108.4600466 328.025600
   2395   2393   2396     1   109.8800469 414.216000
   2396   2397   2398     1   109.8800469 414.216000
   2396   2397   2399     1   109.8800469 414.216000
   2396   2407   2408     1   109.8800469 414.216000
   2396   2407   2409     1   109.8800469 414.216000
   2397   2400   2401     1   109.8000471 387.438400
   2397   2400   2402     1   109.8000471 387.438400
   2398   2397   2400     1   109.5600471 388.275200
   2398   2397   2399     1   108.4600466 328.025600
   2399   2397   2400     1   109.5600471 388.275200
   2401   2400   2403     1   108.7700466 392.459200
   2401   2400   2402     1   107.5800459 329.699200
   2402   2400   2403     1   108.7700466 392.459200
   2403   2405   2406     1   106.5500460 417.563200
   2407   2410   2411     1   109.8000471 387.438400
   2407   2410   2412     1   109.8000471 387.438400
   2408   2407   2410     1   109.5600471 388.275200
   2408   2407   2409     1   108.4600466 328.025600
   2409   2407   2410     1   109.5600471 388.275200
   2411   2410   2413     1   108.7700466 392.459200
   2411   2410   2412     1   107.5800459 329.699200
   2412   2410   2413     1   108.7700466 392.459200
   2413   2415   2416     1   106.5500460 417.563200
   2418   2421   2422     1   109.8000471 387.438400
   2418   2421   2423     1   109.8000471 387.438400
   2419   2418   2421     1   109.5600471 388.275200
   2419   2418   2448     1   109.7800468 425.094400
   2419   2418   2420     1   108.4600466 328.025600
   2420   2418   2421     1   109.5600471 388.275200
   2420   2418   2448     1   109.7800468 425.094400
   2421   2424   2425     1   109.5600471 388.275200
   2421   2424   2426     1   109.5600471 388.275200
   2422   2421   2424     1   109.8000471 387.438400
   2422   2421   2423     1   107.5800459 329.699200
   2423   2421   2424     1   109.8000471 387.438400
   2425   2424   2427     1   109.8800469 414.216000
   2425   2424   2426     1   108.4600466 328.025600
   2426   2424   2427     1   109.8800469 414.216000
   2427   2428   2429     1   109.8800469 414.216000
   2427   2428   2430     1   109.8800469 414.216000
   2427   2438   2439     1   109.8800469 414.216000
   2427   2438   2440     1   109.8800469 414.216000
   2428   2431   2432     1   109.8000471 387.438400
   2428   2431   2433     1   109.8000471 387.438400
   2429   2428   2431     1   109.5600471 388.275200
   2429   2428   2430     1   108.4600466 328.025600
   2430   2428   2431     1   109.5600471 388.275200
   2432   2431   2434     1   108.7700466 392.459200
   2432   2431   2433     1   107.5800459 329.699200
   2433   2431   2434     1   108.7700466 392.459200
   2434   2436   2437     1   106.5500460 417.563200
   2438   2441   2442     1   109.8000471 387.438400
   2438   2441   2443     1   109.8000471 387.438400
   2439   2438   2441     1   109.5600471 388.275200
   2439   2438   2440     1   108.4600466 328.025600
   2440   2438   2441     1   109.5600471 388.275200
   2442   2441   2444     1   108.7700466 392.459200
   2442   2441   2443     1   107.5800459 329.699200
   2443   2441   2444     1   108.7700466 392.459200
   2444   2446   2447     1   106.5500460 417.563200
   2449   2452   2453     1   109.8000471 387.438400
   2449   2452   2454     1   109.8000471 387.438400
   2450   2449   2452     1   109.5600471 388.275200
   2450   2449   2479     1   109.7800468 425.094400
   2450   2449   2451     1   108.4600466 328.025600
   2451   2449   2452     1   109.5600471 388.275200
   2451   2449   2479     1   109.7800468 425.094400
   2452   2455   2456     1   109.5600471 388.275200
   2452   2455   2457     1   109.5600471 388.275200
   2453   2452   2455     1   109.8000471 387.438400
   2453   2452   2454     1   107.5800459 329.699200
   2454   2452   2455     1   109.8000471 387.438400
   2456   2455   2458     1   109.8800469 414.216000
   2456   2455   2457     1   108.4600466 328.025600
   2457   2455   2458     1   109.8800469 414.216000
   2458   2459   2460     1   109.8800469 414.216000
   2458   2459   2461     1   109.8800469 414.216000
   2458   2469   2470     1   109.8800469 414.216000
   2458   2469   2471     1   109.8800469 414.216000
   2459   2462   2463     1   109.8000471 387.438400
   2459   2462   2464     1   109.8000471 387.438400
   2460   2459   2462     1   109.5600471 388.275200
   2460   2459   2461     1   108.4600466 328.025600
   2461   2459   2462     1   109.5600471 388.275200
   2463   2462   2465     1   108.7700466 392.459200
   2463   2462   2464     1   107.5800459 329.699200
   2464   2462   2465     1   108.7700466 392.459200
   2465   2467   2468     1   106.5500460 417.563200
   2469   2472   2473     1   109.8000471 387.438400
   2469   2472   2474     1   109.8000471 387.438400
   2470   2469   2472     1   109.5600471 388.275200
   2470   2469   2471     1   108.4600466 328.025600
   2471   2469   2472     1   109.5600471 388.275200
   2473   2472   2475     1   108.7700466 392.459200
   2473   2472   2474     1   107.5800459 329.699200
   2474   2472   2475     1   108.7700466 392.459200
   2475   2477   2478     1   106.5500460 417.563200
   2480   2483   2484     1   109.8000471 387.438400
   2480   2483   2485     1   109.8000471 387.438400
   2481   2480   2483     1   109.5600471 388.275200
   2481   2480   2510     1   109.7800468 425.094400
   2481   2480   2482     1   108.4600466 328.025600
   2482   2480   2483     1   109.5600471 388.275200
   2482   2480   2510     1   109.7800468 425.094400
   2483   2486   2487     1   109.5600471 388.275200
   2483   2486   2488     1   109.5600471 388.275200
   2484   2483   2486     1   109.8000471 387.438400
   2484   2483   2485     1   107.5800459 329.699200
   2485   2483   2486     1   109.8000471 387.438400
   2487   2486   2489     1   109.8800469 414.216000
   2487   2486   2488     1   108.4600466 328.025600
   2488   2486   2489     1   109.8800469 414.216000
   2489   2490   2491     1   109.8800469 414.216000
   2489   2490   2492     1   109.8800469 414.216000
   2489   2500   2501     1   109.8800469 414.216000
   2489   2500   2502     1   109.8800469 414.216000
   2490   2493   2494     1   109.8000471 387.438400
   2490   2493   2495     1   109.8000471 387.438400
   2491   2490   2493     1   109.5600471 388.275200
   2491   2490   2492     1   108.4600466 328.025600
   2492   2490   2493     1   109.5600471 388.275200
   2494   2493   2496     1   108.7700466 392.459200
   2494   2493   2495     1   107.5800459 329.699200
   2495   2493   2496     1   108.7700466 392.459200
   2496   2498   2499     1   106.5500460 417.563200
   2500   2503   2504     1   109.8000471 387.438400
   2500   2503   2505     1   109.8000471 387.438400
   2501   2500   2503     1   109.5600471 388.275200
   2501   2500   2502     1   108.4600466 328.025600
   2502   2500   2503     1   109.5600471 388.275200
   2504   2503   2506     1   108.7700466 392.459200
   2504   2503   2505     1   107.5800459 329.699200
   2505   2503   2506     1   108.7700466 392.459200
   2506   2508   2509     1   106.5500460 417.563200
   2511   2514   2515     1   109.8000471 387.438400
   2511   2514   2516     1   109.8000471 387.438400
   2512   2511   2514     1   109.5600471 388.275200
   2512   2511   2541     1   109.7800468 425.094400
   2512   2511   2513     1   108.4600466 328.025600
   2513   2511   2514     1   109.5600471 388.275200
   2513   2511   2541     1   109.7800468 425.094400
   2514   2517   2518     1   109.5600471 388.275200
   2514   2517   2519     1   109.5600471 388.275200
   2515   2514   2517     1   109.8000471 387.438400
   2515   2514   2516     1   107.5800459 329.699200
   2516   2514   2517     1   109.8000471 387.438400
   2518   2517   2520     1   109.8800469 414.216000
   2518   2517   2519     1   108.4600466 328.025600
   2519   2517   2520     1   109.8800469 414.216000
   2520   2521   2522     1   109.8800469 414.216000
   2520   2521   2523     1   109.8800469 414.216000
   2520   2531   2532     1   109.8800469 414.216000
   2520   2531   2533     1   109.8800469 414.216000
   2521   2524   2525     1   109.8000471 387.438400
   2521   2524   2526     1   109.8000471 387.438400
   2522   2521   2524     1   109.5600471 388.275200
   2522   2521   2523     1   108.4600466 328.025600
   2523   2521   2524     1   109.5600471 388.275200
   2525   2524   2527     1   108.7700466 392.459200
   2525   2524   2526     1   107.5800459 329.699200
   2526   2524   2527     1   108.7700466 392.459200
   2527   2529   2530     1   106.5500460 417.563200
   2531   2534   2535     1   109.8000471 387.438400
   2531   2534   2536     1   109.8000471 387.438400
   2532   2531   2534     1   109.5600471 388.275200
   2532   2531   2533     1   108.4600466 328.025600
   2533   2531   2534     1   109.5600471 388.275200
   2535   2534   2537     1   108.7700466 392.459200
   2535   2534   2536     1   107.5800459 329.699200
   2536   2534   2537     1   108.7700466 392.459200
   2537   2539   2540     1   106.5500460 417.563200
   2542   2545   2546     1   109.8000471 387.438400
   2542   2545   2547     1   109.8000471 387.438400
   2543   2542   2545     1   109.5600471 388.275200
   2543   2542   2572     1   109.7800468 425.094400
   2543   2542   2544     1   108.4600466 328.025600
   2544   2542   2545     1   109.5600471 388.275200
   2544   2542   2572     1   109.7800468 425.094400
   2545   2548   2549     1   109.5600471 388.275200
   2545   2548   2550     1   109.5600471 388.275200
   2546   2545   2548     1   109.8000471 387.438400
   2546   2545   2547     1   107.5800459 329.699200
   2547   2545   2548     1   109.8000471 387.438400
   2549   2548   2551     1   109.8800469 414.216000
   2549   2548   2550     1   108.4600466 328.025600
   2550   2548   2551     1   109.8800469 414.216000
   2551   2552   2553     1   109.8800469 414.216000
   2551   2552   2554     1   109.8800469 414.216000
   2551   2562   2563     1   109.8800469 414.216000
   2551   2562   2564     1   109.8800469 414.216000
   2552   2555   2556     1   109.8000471 387.438400
   2552   2555   2557     1   109.8000471 387.438400
   2553   2552   2555     1   109.5600471 388.275200
   2553   2552   2554     1   108.4600466 328.025600
   2554   2552   2555     1   109.5600471 388.275200
   2556   2555   2558     1   108.7700466 392.459200
   2556   2555   2557     1   107.5800459 329.699200
   2557   2555   2558     1   108.7700466 392.459200
   2558   2560   2561     1   106.5500460 417.563200
   2562   2565   2566     1   109.8000471 387.438400
   2562   2565   2567     1   109.8000471 387.438400
   2563   2562   2565     1   109.5600471 388.275200
   2563   2562   2564     1   108.4600466 328.025600
   2564   2562   2565     1   109.5600471 388.275200
   2566   2565   2568     1   108.7700466 392.459200
   2566   2565   2567     1   107.5800459 329.699200
   2567   2565   2568     1   108.7700466 392.459200
   2568   2570   2571     1   106.5500460 417.563200
   2573   2576   2577     1   109.8000471 387.438400
   2573   2576   2578     1   109.8000471 387.438400
   2574   2573   2576     1   109.5600471 388.275200
   2574   2573   2603     1   109.7800468 425.094400
   2574   2573   2575     1   108.4600466 328.025600
   2575   2573   2576     1   109.5600471 388.275200
   2575   2573   2603     1   109.7800468 425.094400
   2576   2579   2580     1   109.5600471 388.275200
   2576   2579   2581     1   109.5600471 388.275200
   2577   2576   2579     1   109.8000471 387.438400
   2577   2576   2578     1   107.5800459 329.699200
   2578   2576   2579     1   109.8000471 387.438400
   2580   2579   2582     1   109.8800469 414.216000
   2580   2579   2581     1   108.4600466 328.025600
   2581   2579   2582     1   109.8800469 414.216000
   2582   2583   2584     1   109.8800469 414.216000
   2582   2583   2585     1   109.8800469 414.216000
   2582   2593   2594     1   109.8800469 414.216000
   2582   2593   2595     1   109.8800469 414.216000
   2583   2586   2587     1   109.8000471 387.438400
   2583   2586   2588     1   109.8000471 387.438400
   2584   2583   2586     1   109.5600471 388.275200
   2584   2583   2585     1   108.4600466 328.025600
   2585   2583   2586     1   109.5600471 388.275200
   2587   2586   2589     1   108.7700466 392.459200
   2587   2586   2588     1   107.5800459 329.699200
   2588   2586   2589     1   108.7700466 392.459200
   2589   2591   2592     1   106.5500460 417.563200
   2593   2596   2597     1   109.8000471 387.438400
   2593   2596   2598     1   109.8000471 387.438400
   2594   2593   2596     1   109.5600471 388.275200
   2594   2593   2595     1   108.4600466 328.025600
   2595   2593   2596     1   109.5600471 388.275200
   2597   2596   2599     1   108.7700466 392.459200
   2597   2596   2598     1   107.5800459 329.699200
   2598   2596   2599     1   108.7700466 392.459200
   2599   2601   2602     1   106.5500460 417.563200
   2604   2607   2608     1   109.8000471 387.438400
   2604   2607   2609     1   109.8000471 387.438400
   2605   2604   2607     1   109.5600471 388.275200
   2605   2604   2634     1   109.7800468 425.094400
   2605   2604   2606     1   108.4600466 328.025600
   2606   2604   2607     1   109.5600471 388.275200
   2606   2604   2634     1   109.7800468 425.094400
   2607   2610   2611     1   109.5600471 388.275200
   2607   2610   2612     1   109.5600471 388.275200
   2608   2607   2610     1   109.8000471 387.438400
   2608   2607   2609     1   107.5800459 329.699200
   2609   2607   2610     1   109.8000471 387.438400
   2611   2610   2613     1   109.8800469 414.216000
   2611   2610   2612     1   108.4600466 328.025600
   2612   2610   2613     1   109.8800469 414.216000
   2613   2614   2615     1   109.8800469 414.216000
   2613   2614   2616     1   109.8800469 414.216000
   2613   2624   2625     1   109.8800469 414.216000
   2613   2624   2626     1   109.8800469 414.216000
   2614   2617   2618     1   109.8000471 387.438400
   2614   2617   2619     1   109.8000471 387.438400
   2615   2614   2617     1   109.5600471 388.275200
   2615   2614   2616     1   108.4600466 328.025600
   2616   2614   2617     1   109.5600471 388.275200
   2618   2617   2620     1   108.7700466 392.459200
   2618   2617   2619     1   107.5800459 329.699200
   2619   2617   2620     1   108.7700466 392.459200
   2620   2622   2623     1   106.5500460 417.563200
   2624   2627   2628     1   109.8000471 387.438400
   2624   2627   2629     1   109.8000471 387.438400
   2625   2624   2627     1   109.5600471 388.275200
   2625   2624   2626     1   108.4600466 328.025600
   2626   2624   2627     1   109.5600471 388.275200
   2628   2627   2630     1   108.7700466 392.459200
   2628   2627   2629     1   107.5800459 329.699200
   2629   2627   2630     1   108.7700466 392.459200
   2630   2632   2633     1   106.5500460 417.563200
   2635   2638   2639     1   109.8000471 387.438400
   2635   2638   2640     1   109.8000471 387.438400
   2636   2635   2638     1   109.5600471 388.275200
   2636   2635   2665     1   109.7800468 425.094400
   2636   2635   2637     1   108.4600466 328.025600
   2637   2635   2638     1   109.5600471 388.275200
   2637   2635   2665     1   109.7800468 425.094400
   2638   2641   2642     1   109.5600471 388.275200
   2638   2641   2643     1   109.5600471 388.275200
   2639   2638   2641     1   109.8000471 387.438400
   2639   2638   2640     1   107.5800459 329.699200
   2640   2638   2641     1   109.8000471 387.438400
   2642   2641   2644     1   109.8800469 414.216000
   2642   2641   2643     1   108.4600466 328.025600
   2643   2641   2644     1   109.8800469 414.216000
   2644   2645   2646     1   109.8800469 414.216000
   2644   2645   2647     1   109.8800469 414.216000
   2644   2655   2656     1   109.8800469 414.216000
   2644   2655   2657     1   109.8800469 414.216000
   2645   2648   2649     1   109.8000471 387.438400
   2645   2648   2650     1   109.8000471 387.438400
   2646   2645   2648     1   109.5600471 388.275200
   2646   2645   2647     1   108.4600466 328.025600
   2647   2645   2648     1   109.5600471 388.275200
   2649   2648   2651     1   108.7700466 392.459200
   2649   2648   2650     1   107.5800459 329.699200
   2650   2648   2651     1   108.7700466 392.459200
   2651   2653   2654     1   106.5500460 417.563200
   2655   2658   2659     1   109.8000471 387.438400
   2655   2658   2660     1   109.8000471 387.438400
   2656   2655   2658     1   109.5600471 388.275200
   2656   2655   2657     1   108.4600466 328.025600
   2657   2655   2658     1   109.5600471 388.275200
   2659   2658   2661     1   108.7700466 392.459200
   2659   2658   2660     1   107.5800459 329.699200
   2660   2658   2661     1   108.7700466 392.459200
   2661   2663   2664     1   106.5500460 417.563200
   2666   2669   2670     1   109.8000471 387.438400
   2666   2669   2671     1   109.8000471 387.438400
   2667   2666   2669     1   109.5600471 388.275200
   2667   2666   2696     1   109.7800468 425.094400
   2667   2666   2668     1   108.4600466 328.025600
   2668   2666   2669     1   109.5600471 388.275200
   2668   2666   2696     1   109.7800468 425.094400
   2669   2672   2673     1   109.5600471 388.275200
   2669   2672   2674     1   109.5600471 388.275200
   2670   2669   2672     1   109.8000471 387.438400
   2670   2669   2671     1   107.5800459 329.699200
   2671   2669   2672     1   109.8000471 387.438400
   2673   2672   2675     1   109.8800469 414.216000
   2673   2672   2674     1   108.4600466 328.025600
   2674   2672   2675     1   109.8800469 414.216000
   2675   2676   2677     1   109.8800469 414.216000
   2675   2676   2678     1   109.8800469 414.216000
   2675   2686   2687     1   109.8800469 414.216000
   2675   2686   2688     1   109.8800469 414.216000
   2676   2679   2680     1   109.8000471 387.438400
   2676   2679   2681     1   109.8000471 387.438400
   2677   2676   2679     1   109.5600471 388.275200
   2677   2676   2678     1   108.4600466 328.025600
   2678   2676   2679     1   109.5600471 388.275200
   2680   2679   2682     1   108.7700466 392.459200
   2680   2679   2681     1   107.5800459 329.699200
   2681   2679   2682     1   108.7700466 392.459200
   2682   2684   2685     1   106.5500460 417.563200
   2686   2689   2690     1   109.8000471 387.438400
   2686   2689   2691     1   109.8000471 387.438400
   2687   2686   2689     1   109.5600471 388.275200
   2687   2686   2688     1   108.4600466 328.025600
   2688   2686   2689     1   109.5600471 388.275200
   2690   2689   2692     1   108.7700466 392.459200
   2690   2689   2691     1   107.5800459 329.699200
   2691   2689   2692     1   108.7700466 392.459200
   2692   2694   2695     1   106.5500460 417.563200
   2697   2700   2701     1   109.8000471 387.438400
   2697   2700   2702     1   109.8000471 387.438400
   2698   2697   2700     1   109.5600471 388.275200
   2698   2697   2727     1   109.7800468 425.094400
   2698   2697   2699     1   108.4600466 328.025600
   2699   2697   2700     1   109.5600471 388.275200
   2699   2697   2727     1   109.7800468 425.094400
   2700   2703   2704     1   109.5600471 388.275200
   2700   2703   2705     1   109.5600471 388.275200
   2701   2700   2703     1   109.8000471 387.438400
   2701   2700   2702     1   107.5800459 329.699200
   2702   2700   2703     1   109.8000471 387.438400
   2704   2703   2706     1   109.8800469 414.216000
   2704   2703   2705     1   108.4600466 328.025600
   2705   2703   2706     1   109.8800469 414.216000
   2706   2707   2708     1   109.8800469 414.216000
   2706   2707   2709     1   109.8800469 414.216000
   2706   2717   2718     1   109.8800469 414.216000
   2706   2717   2719     1   109.8800469 414.216000
   2707   2710   2711     1   109.8000471 387.438400
   2707   2710   2712     1   109.8000471 387.438400
   2708   2707   2710     1   109.5600471 388.275200
   2708   2707   2709     1   108.4600466 328.025600
   2709   2707   2710     1   109.5600471 388.275200
   2711   2710   2713     1   108.7700466 392.459200
   2711   2710   2712     1   107.5800459 329.699200
   2712   2710   2713     1   108.7700466 392.459200
   2713   2715   2716     1   106.5500460 417.563200
   2717   2720   2721     1   109.8000471 387.438400
   2717   2720   2722     1   109.8000471 387.438400
   2718   2717   2720     1   109.5600471 388.275200
   2718   2717   2719     1   108.4600466 328.025600
   2719   2717   2720     1   109.5600471 388.275200
   2721   2720   2723     1   108.7700466 392.459200
   2721   2720   2722     1   107.5800459 329.699200
   2722   2720   2723     1   108.7700466 392.459200
   2723   2725   2726     1   106.5500460 417.563200
   2728   2731   2732     1   109.8000471 387.438400
   2728   2731   2733     1   109.8000471 387.438400
   2729   2728   2731     1   109.5600471 388.275200
   2729   2728   2758     1   109.7800468 425.094400
   2729   2728   2730     1   108.4600466 328.025600
   2730   2728   2731     1   109.5600471 388.275200
   2730   2728   2758     1   109.7800468 425.094400
   2731   2734   2735     1   109.5600471 388.275200
   2731   2734   2736     1   109.5600471 388.275200
   2732   2731   2734     1   109.8000471 387.438400
   2732   2731   2733     1   107.5800459 329.699200
   2733   2731   2734     1   109.8000471 387.438400
   2735   2734   2737     1   109.8800469 414.216000
   2735   2734   2736     1   108.4600466 328.025600
   2736   2734   2737     1   109.8800469 414.216000
   2737   2738   2739     1   109.8800469 414.216000
   2737   2738   2740     1   109.8800469 414.216000
   2737   2748   2749     1   109.8800469 414.216000
   2737   2748   2750     1   109.8800469 414.216000
   2738   2741   2742     1   109.8000471 387.438400
   2738   2741   2743     1   109.8000471 387.438400
   2739   2738   2741     1   109.5600471 388.275200
   2739   2738   2740     1   108.4600466 328.025600
   2740   2738   2741     1   109.5600471 388.275200
   2742   2741   2744     1   108.7700466 392.459200
   2742   2741   2743     1   107.5800459 329.699200
   2743   2741   2744     1   108.7700466 392.459200
   2744   2746   2747     1   106.5500460 417.563200
   2748   2751   2752     1   109.8000471 387.438400
   2748   2751   2753     1   109.8000471 387.438400
   2749   2748   2751     1   109.5600471 388.275200
   2749   2748   2750     1   108.4600466 328.025600
   2750   2748   2751     1   109.5600471 388.275200
   2752   2751   2754     1   108.7700466 392.459200
   2752   2751   2753     1   107.5800459 329.699200
   2753   2751   2754     1   108.7700466 392.459200
   2754   2756   2757     1   106.5500460 417.563200
   2759   2762   2763     1   109.8000471 387.438400
   2759   2762   2764     1   109.8000471 387.438400
   2760   2759   2762     1   109.5600471 388.275200
   2760   2759   2789     1   109.7800468 425.094400
   2760   2759   2761     1   108.4600466 328.025600
   2761   2759   2762     1   109.5600471 388.275200
   2761   2759   2789     1   109.7800468 425.094400
   2762   2765   2766     1   109.5600471 388.275200
   2762   2765   2767     1   109.5600471 388.275200
   2763   2762   2765     1   109.8000471 387.438400
   2763   2762   2764     1   107.5800459 329.699200
   2764   2762   2765     1   109.8000471 387.438400
   2766   2765   2768     1   109.8800469 414.216000
   2766   2765   2767     1   108.4600466 328.025600
   2767   2765   2768     1   109.8800469 414.216000
   2768   2769   2770     1   109.8800469 414.216000
   2768   2769   2771     1   109.8800469 414.216000
   2768   2779   2780     1   109.8800469 414.216000
   2768   2779   2781     1   109.8800469 414.216000
   2769   2772   2773     1   109.8000471 387.438400
   2769   2772   2774     1   109.8000471 387.438400
   2770   2769   2772     1   109.5600471 388.275200
   2770   2769   2771     1   108.4600466 328.025600
   2771   2769   2772     1   109.5600471 388.275200
   2773   2772   2775     1   108.7700466 392.459200
   2773   2772   2774     1   107.5800459 329.699200
   2774   2772   2775     1   108.7700466 392.459200
   2775   2777   2778     1   106.5500460 417.563200
   2779   2782   2783     1   109.8000471 387.438400
   2779   2782   2784     1   109.8000471 387.438400
   2780   2779   2782     1   109.5600471 388.275200
   2780   2779   2781     1   108.4600466 328.025600
   2781   2779   2782     1   109.5600471 388.275200
   2783   2782   2785     1   108.7700466 392.459200
   2783   2782   2784     1   107.5800459 329.699200
   2784   2782   2785     1   108.7700466 392.459200
   2785   2787   2788     1   106.5500460 417.563200
   2790   2793   2794     1   109.8000471 387.438400
   2790   2793   2795     1   109.8000471 387.438400
   2791   2790   2793     1   109.5600471 388.275200
   2791   2790   2820     1   109.7800468 425.094400
   2791   2790   2792     1   108.4600466 328.025600
   2792   2790   2793     1   109.5600471 388.275200
   2792   2790   2820     1   109.7800468 425.094400
   2793   2796   2797     1   109.5600471 388.275200
   2793   2796   2798     1   109.5600471 388.275200
   2794   2793   2796     1   109.8000471 387.438400
   2794   2793   2795     1   107.5800459 329.699200
   2795   2793   2796     1   109.8000471 387.438400
   2797   2796   2799     1   109.8800469 414.216000
   2797   2796   2798     1   108.4600466 328.025600
   2798   2796   2799     1   109.8800469 414.216000
   2799   2800   2801     1   109.8800469 414.216000
   2799   2800   2802     1   109.8800469 414.216000
   2799   2810   2811     1   109.8800469 414.216000
   2799   2810   2812     1   109.8800469 414.216000
   2800   2803   2804     1   109.8000471 387.438400
   2800   2803   2805     1   109.8000471 387.438400
   2801   2800   2803     1   109.5600471 388.275200
   2801   2800   2802     1   108.4600466 328.025600
   2802   2800   2803     1   109.5600471 388.275200
   2804   2803   2806     1   108.7700466 392.459200
   2804   2803   2805     1   107.5800459 329.699200
   2805   2803   2806     1   108.7700466 392.459200
   2806   2808   2809     1   106.5500460 417.563200
   2810   2813   2814     1   109.8000471 387.438400
   2810   2813   2815     1   109.8000471 387.438400
   2811   2810   2813     1   109.5600471 388.275200
   2811   2810   2812     1   108.4600466 328.025600
   2812   2810   2813     1   109.5600471 388.275200
   2814   2813   2816     1   108.7700466 392.459200
   2814   2813   2815     1   107.5800459 329.699200
   2815   2813   2816     1   108.7700466 392.459200
   2816   2818   2819     1   106.5500460 417.563200
   2821   2824   2825     1   109.8000471 387.438400
   2821   2824   2826     1   109.8000471 387.438400
   2822   2821   2824     1   109.5600471 388.275200
   2822   2821   2851     1   109.7800468 425.094400
   2822   2821   2823     1   108.4600466 328.025600
   2823   2821   2824     1   109.5600471 388.275200
   2823   2821   2851     1   109.7800468 425.094400
   2824   2827   2828     1   109.5600471 388.275200
   2824   2827   2829     1   109.5600471 388.275200
   2825   2824   2827     1   109.8000471 387.438400
   2825   2824   2826     1   107.5800459 329.699200
   2826   2824   2827     1   109.8000471 387.438400
   2828   2827   2830     1   109.8800469 414.216000
   2828   2827   2829     1   108.4600466 328.025600
   2829   2827   2830     1   109.8800469 414.216000
   2830   2831   2832     1   109.8800469 414.216000
   2830   2831   2833     1   109.8800469 414.216000
   2830   2841   2842     1   109.8800469 414.216000
   2830   2841   2843     1   109.8800469 414.216000
   2831   2834   2835     1   109.8000471 387.438400
   2831   2834   2836     1   109.8000471 387.438400
   2832   2831   2834     1   109.5600471 388.275200
   2832   2831   2833     1   108.4600466 328.025600
   2833   2831   2834     1   109.5600471 388.275200
   2835   2834   2837     1   108.7700466 392.459200
   2835   2834   2836     1   107.5800459 329.699200
   2836   2834   2837     1   108.7700466 392.459200
   2837   2839   2840     1   106.5500460 417.563200
   2841   2844   2845     1   109.8000471 387.438400
   2841   2844   2846     1   109.8000471 387.438400
   2842   2841   2844     1   109.5600471 388.275200
   2842   2841   2843     1   108.4600466 328.025600
   2843   2841   2844     1   109.5600471 388.275200
   2845   2844   2847     1   108.7700466 392.459200
   2845   2844   2846     1   107.5800459 329.699200
   2846   2844   2847     1   108.7700466 392.459200
   2847   2849   2850     1   106.5500460 417.563200
   2852   2855   2856     1   109.8000471 387.438400
   2852   2855   2857     1   109.8000471 387.438400
   2853   2852   2855     1   109.5600471 388.275200
   2853   2852   2882     1   109.7800468 425.094400
   2853   2852   2854     1   108.4600466 328.025600
   2854   2852   2855     1   109.5600471 388.275200
   2854   2852   2882     1   109.7800468 425.094400
   2855   2858   2859     1   109.5600471 388.275200
   2855   2858   2860     1   109.5600471 388.275200
   2856   2855   2858     1   109.8000471 387.438400
   2856   2855   2857     1   107.5800459 329.699200
   2857   2855   2858     1   109.8000471 387.438400
   2859   2858   2861     1   109.8800469 414.216000
   2859   2858   2860     1   108.4600466 328.025600
   2860   2858   2861     1   109.8800469 414.216000
   2861   2862   2863     1   109.8800469 414.216000
   2861   2862   2864     1   109.8800469 414.216000
   2861   2872   2873     1   109.8800469 414.216000
   2861   2872   2874     1   109.8800469 414.216000
   2862   2865   2866     1   109.8000471 387.438400
   2862   2865   2867     1   109.8000471 387.438400
   2863   2862   2865     1   109.5600471 388.275200
   2863   2862   2864     1   108.4600466 328.025600
   2864   2862   2865     1   109.5600471 388.275200
   2866   2865   2868     1   108.7700466 392.459200
   2866   2865   2867     1   107.5800459 329.699200
   2867   2865   2868     1   108.7700466 392.459200
   2868   2870   2871     1   106.5500460 417.563200
   2872   2875   2876     1   109.8000471 387.438400
   2872   2875   2877     1   109.8000471 387.438400
   2873   2872   2875     1   109.5600471 388.275200
   2873   2872   2874     1   108.4600466 328.025600
   2874   2872   2875     1   109.5600471 388.275200
   2876   2875   2878     1   108.7700466 392.459200
   2876   2875   2877     1   107.5800459 329.699200
   2877   2875   2878     1   108.7700466 392.459200
   2878   2880   2881     1   106.5500460 417.563200
   2883   2886   2887     1   109.8000471 387.438400
   2883   2886   2888     1   109.8000471 387.438400
   2884   2883   2886     1   109.5600471 388.275200
   2884   2883   2913     1   109.7800468 425.094400
   2884   2883   2885     1   108.4600466 328.025600
   2885   2883   2886     1   109.5600471 388.275200
   2885   2883   2913     1   109.7800468 425.094400
   2886   2889   2890     1   109.5600471 388.275200
   2886   2889   2891     1   109.5600471 388.275200
   2887   2886   2889     1   109.8000471 387.438400
   2887   2886   2888     1   107.5800459 329.699200
   2888   2886   2889     1   109.8000471 387.438400
   2890   2889   2892     1   109.8800469 414.216000
   2890   2889   2891     1   108.4600466 328.025600
   2891   2889   2892     1   109.8800469 414.216000
   2892   2893   2894     1   109.8800469 414.216000
   2892   2893   2895     1   109.8800469 414.216000
   2892   2903   2904     1   109.8800469 414.216000
   2892   2903   2905     1   109.8800469 414.216000
   2893   2896   2897     1   109.8000471 387.438400
   2893   2896   2898     1   109.8000471 387.438400
   2894   2893   2896     1   109.5600471 388.275200
   2894   2893   2895     1   108.4600466 328.025600
   2895   2893   2896     1   109.5600471 388.275200
   2897   2896   2899     1   108.7700466 392.459200
   2897   2896   2898     1   107.5800459 329.699200
   2898   2896   2899     1   108.7700466 392.459200
   2899   2901   2902     1   106.5500460 417.563200
   2903   2906   2907     1   109.8000471 387.438400
   2903   2906   2908     1   109.8000471 387.438400
   2904   2903   2906     1   109.5600471 388.275200
   2904   2903   2905     1   108.4600466 328.025600
   2905   2903   2906     1   109.5600471 388.275200
   2907   2906   2909     1   108.7700466 392.459200
   2907   2906   2908     1   107.5800459 329.699200
   2908   2906   2909     1   108.7700466 392.459200
   2909   2911   2912     1   106.5500460 417.563200
   2914   2917   2918     1   109.8000471 387.438400
   2914   2917   2919     1   109.8000471 387.438400
   2915   2914   2917     1   109.5600471 388.275200
   2915   2914   2944     1   109.7800468 425.094400
   2915   2914   2916     1   108.4600466 328.025600
   2916   2914   2917     1   109.5600471 388.275200
   2916   2914   2944     1   109.7800468 425.094400
   2917   2920   2921     1   109.5600471 388.275200
   2917   2920   2922     1   109.5600471 388.275200
   2918   2917   2920     1   109.8000471 387.438400
   2918   2917   2919     1   107.5800459 329.699200
   2919   2917   2920     1   109.8000471 387.438400
   2921   2920   2923     1   109.8800469 414.216000
   2921   2920   2922     1   108.4600466 328.025600
   2922   2920   2923     1   109.8800469 414.216000
   2923   2924   2925     1   109.8800469 414.216000
   2923   2924   2926     1   109.8800469 414.216000
   2923   2934   2935     1   109.8800469 414.216000
   2923   2934   2936     1   109.8800469 414.216000
   2924   2927   2928     1   109.8000471 387.438400
   2924   2927   2929     1   109.8000471 387.438400
   2925   2924   2927     1   109.5600471 388.275200
   2925   2924   2926     1   108.4600466 328.025600
   2926   2924   2927     1   109.5600471 388.275200
   2928   2927   2930     1   108.7700466 392.459200
   2928   2927   2929     1   107.5800459 329.699200
   2929   2927   2930     1   108.7700466 392.459200
   2930   2932   2933     1   106.5500460 417.563200
   2934   2937   2938     1   109.8000471 387.438400
   2934   2937   2939     1   109.8000471 387.438400
   2935   2934   2937     1   109.5600471 388.275200
   2935   2934   2936     1   108.4600466 328.025600
   2936   2934   2937     1   109.5600471 388.275200
   2938   2937   2940     1   108.7700466 392.459200
   2938   2937   2939     1   107.5800459 329.699200
   2939   2937   2940     1   108.7700466 392.459200
   2940   2942   2943     1   106.5500460 417.563200
   2945   2948   2949     1   109.8000471 387.438400
   2945   2948   2950     1   109.8000471 387.438400
   2946   2945   2948     1   109.5600471 388.275200
   2946   2945   2975     1   109.7800468 425.094400
   2946   2945   2947     1   108.4600466 328.025600
   2947   2945   2948     1   109.5600471 388.275200
   2947   2945   2975     1   109.7800468 425.094400
   2948   2951   2952     1   109.5600471 388.275200
   2948   2951   2953     1   109.5600471 388.275200
   2949   2948   2951     1   109.8000471 387.438400
   2949   2948   2950     1   107.5800459 329.699200
   2950   2948   2951     1   109.8000471 387.438400
   2952   2951   2954     1   109.8800469 414.216000
   2952   2951   2953     1   108.4600466 328.025600
   2953   2951   2954     1   109.8800469 414.216000
   2954   2955   2956     1   109.8800469 414.216000
   2954   2955   2957     1   109.8800469 414.216000
   2954   2965   2966     1   109.8800469 414.216000
   2954   2965   2967     1   109.8800469 414.216000
   2955   2958   2959     1   109.8000471 387.438400
   2955   2958   2960     1   109.8000471 387.438400
   2956   2955   2958     1   109.5600471 388.275200
   2956   2955   2957     1   108.4600466 328.025600
   2957   2955   2958     1   109.5600471 388.275200
   2959   2958   2961     1   108.7700466 392.459200
   2959   2958   2960     1   107.5800459 329.699200
   2960   2958   2961     1   108.7700466 392.459200
   2961   2963   2964     1   106.5500460 417.563200
   2965   2968   2969     1   109.8000471 387.438400
   2965   2968   2970     1   109.8000471 387.438400
   2966   2965   2968     1   109.5600471 388.275200
   2966   2965   2967     1   108.4600466 328.025600
   2967   2965   2968     1   109.5600471 388.275200
   2969   2968   2971     1   108.7700466 392.459200
   2969   2968   2970     1   107.5800459 329.699200
   2970   2968   2971     1   108.7700466 392.459200
   2971   2973   2974     1   106.5500460 417.563200
   2976   2979   2980     1   109.8000471 387.438400
   2976   2979   2981     1   109.8000471 387.438400
   2977   2976   2979     1   109.5600471 388.275200
   2977   2976   3006     1   109.7800468 425.094400
   2977   2976   2978     1   108.4600466 328.025600
   2978   2976   2979     1   109.5600471 388.275200
   2978   2976   3006     1   109.7800468 425.094400
   2979   2982   2983     1   109.5600471 388.275200
   2979   2982   2984     1   109.5600471 388.275200
   2980   2979   2982     1   109.8000471 387.438400
   2980   2979   2981     1   107.5800459 329.699200
   2981   2979   2982     1   109.8000471 387.438400
   2983   2982   2985     1   109.8800469 414.216000
   2983   2982   2984     1   108.4600466 328.025600
   2984   2982   2985     1   109.8800469 414.216000
   2985   2986   2987     1   109.8800469 414.216000
   2985   2986   2988     1   109.8800469 414.216000
   2985   2996   2997     1   109.8800469 414.216000
   2985   2996   2998     1   109.8800469 414.216000
   2986   2989   2990     1   109.8000471 387.438400
   2986   2989   2991     1   109.8000471 387.438400
   2987   2986   2989     1   109.5600471 388.275200
   2987   2986   2988     1   108.4600466 328.025600
   2988   2986   2989     1   109.5600471 388.275200
   2990   2989   2992     1   108.7700466 392.459200
   2990   2989   2991     1   107.5800459 329.699200
   2991   2989   2992     1   108.7700466 392.459200
   2992   2994   2995     1   106.5500460 417.563200
   2996   2999   3000     1   109.8000471 387.438400
   2996   2999   3001     1   109.8000471 387.438400
   2997   2996   2999     1   109.5600471 388.275200
   2997   2996   2998     1   108.4600466 328.025600
   2998   2996   2999     1   109.5600471 388.275200
   3000   2999   3002     1   108.7700466 392.459200
   3000   2999   3001     1   107.5800459 329.699200
   3001   2999   3002     1   108.7700466 392.459200
   3002   3004   3005     1   106.5500460 417.563200
   3007   3010   3011     1   109.8000471 387.438400
   3007   3010   3012     1   109.8000471 387.438400
   3008   3007   3010     1   109.5600471 388.275200
   3008   3007   3037     1   109.7800468 425.094400
   3008   3007   3009     1   108.4600466 328.025600
   3009   3007   3010     1   109.5600471 388.275200
   3009   3007   3037     1   109.7800468 425.094400
   3010   3013   3014     1   109.5600471 388.275200
   3010   3013   3015     1   109.5600471 388.275200
   3011   3010   3013     1   109.8000471 387.438400
   3011   3010   3012     1   107.5800459 329.699200
   3012   3010   3013     1   109.8000471 387.438400
   3014   3013   3016     1   109.8800469 414.216000
   3014   3013   3015     1   108.4600466 328.025600
   3015   3013   3016     1   109.8800469 414.216000
   3016   3017   3018     1   109.8800469 414.216000
   3016   3017   3019     1   109.8800469 414.216000
   3016   3027   3028     1   109.8800469 414.216000
   3016   3027   3029     1   109.8800469 414.216000
   3017   3020   3021     1   109.8000471 387.438400
   3017   3020   3022     1   109.8000471 387.438400
   3018   3017   3020     1   109.5600471 388.275200
   3018   3017   3019     1   108.4600466 328.025600
   3019   3017   3020     1   109.5600471 388.275200
   3021   3020   3023     1   108.7700466 392.459200
   3021   3020   3022     1   107.5800459 329.699200
   3022   3020   3023     1   108.7700466 392.459200
   3023   3025   3026     1   106.5500460 417.563200
   3027   3030   3031     1   109.8000471 387.438400
   3027   3030   3032     1   109.8000471 387.438400
   3028   3027   3030     1   109.5600471 388.275200
   3028   3027   3029     1   108.4600466 328.025600
   3029   3027   3030     1   109.5600471 388.275200
   3031   3030   3033     1   108.7700466 392.459200
   3031   3030   3032     1   107.5800459 329.699200
   3032   3030   3033     1   108.7700466 392.459200
   3033   3035   3036     1   106.5500460 417.563200
   3038   3041   3042     1   109.8000471 387.438400
   3038   3041   3043     1   109.8000471 387.438400
   3039   3038   3041     1   109.5600471 388.275200
   3039   3038   3068     1   109.7800468 425.094400
   3039   3038   3040     1   108.4600466 328.025600
   3040   3038   3041     1   109.5600471 388.275200
   3040   3038   3068     1   109.7800468 425.094400
   3041   3044   3045     1   109.5600471 388.275200
   3041   3044   3046     1   109.5600471 388.275200
   3042   3041   3044     1   109.8000471 387.438400
   3042   3041   3043     1   107.5800459 329.699200
   3043   3041   3044     1   109.8000471 387.438400
   3045   3044   3047     1   109.8800469 414.216000
   3045   3044   3046     1   108.4600466 328.025600
   3046   3044   3047     1   109.8800469 414.216000
   3047   3048   3049     1   109.8800469 414.216000
   3047   3048   3050     1   109.8800469 414.216000
   3047   3058   3059     1   109.8800469 414.216000
   3047   3058   3060     1   109.8800469 414.216000
   3048   3051   3052     1   109.8000471 387.438400
   3048   3051   3053     1   109.8000471 387.438400
   3049   3048   3051     1   109.5600471 388.275200
   3049   3048   3050     1   108.4600466 328.025600
   3050   3048   3051     1   109.5600471 388.275200
   3052   3051   3054     1   108.7700466 392.459200
   3052   3051   3053     1   107.5800459 329.699200
   3053   3051   3054     1   108.7700466 392.459200
   3054   3056   3057     1   106.5500460 417.563200
   3058   3061   3062     1   109.8000471 387.438400
   3058   3061   3063     1   109.8000471 387.438400
   3059   3058   3061     1   109.5600471 388.275200
   3059   3058   3060     1   108.4600466 328.025600
   3060   3058   3061     1   109.5600471 388.275200
   3062   3061   3064     1   108.7700466 392.459200
   3062   3061   3063     1   107.5800459 329.699200
   3063   3061   3064     1   108.7700466 392.459200
   3064   3066   3067     1   106.5500460 417.563200
   3069   3072   3073     1   109.8000471 387.438400
   3069   3072   3074     1   109.8000471 387.438400
   3070   3069   3072     1   109.5600471 388.275200
   3070   3069   3099     1   109.7800468 425.094400
   3070   3069   3071     1   108.4600466 328.025600
   3071   3069   3072     1   109.5600471 388.275200
   3071   3069   3099     1   109.7800468 425.094400
   3072   3075   3076     1   109.5600471 388.275200
   3072   3075   3077     1   109.5600471 388.275200
   3073   3072   3075     1   109.8000471 387.438400
   3073   3072   3074     1   107.5800459 329.699200
   3074   3072   3075     1   109.8000471 387.438400
   3076   3075   3078     1   109.8800469 414.216000
   3076   3075   3077     1   108.4600466 328.025600
   3077   3075   3078     1   109.8800469 414.216000
   3078   3079   3080     1   109.8800469 414.216000
   3078   3079   3081     1   109.8800469 414.216000
   3078   3089   3090     1   109.8800469 414.216000
   3078   3089   3091     1   109.8800469 414.216000
   3079   3082   3083     1   109.8000471 387.438400
   3079   3082   3084     1   109.8000471 387.438400
   3080   3079   3082     1   109.5600471 388.275200
   3080   3079   3081     1   108.4600466 328.025600
   3081   3079   3082     1   109.5600471 388.275200
   3083   3082   3085     1   108.7700466 392.459200
   3083   3082   3084     1   107.5800459 329.699200
   3084   3082   3085     1   108.7700466 392.459200
   3085   3087   3088     1   106.5500460 417.563200
   3089   3092   3093     1   109.8000471 387.438400
   3089   3092   3094     1   109.8000471 387.438400
   3090   3089   3092     1   109.5600471 388.275200
   3090   3089   3091     1   108.4600466 328.025600
   3091   3089   3092     1   109.5600471 388.275200
   3093   3092   3095     1   108.7700466 392.459200
   3093   3092   3094     1   107.5800459 329.699200
   3094   3092   3095     1   108.7700466 392.459200
   3095   3097   3098     1   106.5500460 417.563200
   3100   3103   3104     1   109.8000471 387.438400
   3100   3103   3105     1   109.8000471 387.438400
   3101   3100   3103     1   109.5600471 388.275200
   3101   3100   3130     1   109.7800468 425.094400
   3101   3100   3102     1   108.4600466 328.025600
   3102   3100   3103     1   109.5600471 388.275200
   3102   3100   3130     1   109.7800468 425.094400
   3103   3106   3107     1   109.5600471 388.275200
   3103   3106   3108     1   109.5600471 388.275200
   3104   3103   3106     1   109.8000471 387.438400
   3104   3103   3105     1   107.5800459 329.699200
   3105   3103   3106     1   109.8000471 387.438400
   3107   3106   3109     1   109.8800469 414.216000
   3107   3106   3108     1   108.4600466 328.025600
   3108   3106   3109     1   109.8800469 414.216000
   3109   3110   3111     1   109.8800469 414.216000
   3109   3110   3112     1   109.8800469 414.216000
   3109   3120   3121     1   109.8800469 414.216000
   3109   3120   3122     1   109.8800469 414.216000
   3110   3113   3114     1   109.8000471 387.438400
   3110   3113   3115     1   109.8000471 387.438400
   3111   3110   3113     1   109.5600471 388.275200
   3111   3110   3112     1   108.4600466 328.025600
   3112   3110   3113     1   109.5600471 388.275200
   3114   3113   3116     1   108.7700466 392.459200
   3114   3113   3115     1   107.5800459 329.699200
   3115   3113   3116     1   108.7700466 392.459200
   3116   3118   3119     1   106.5500460 417.563200
   3120   3123   3124     1   109.8000471 387.438400
   3120   3123   3125     1   109.8000471 387.438400
   3121   3120   3123     1   109.5600471 388.275200
   3121   3120   3122     1   108.4600466 328.025600
   3122   3120   3123     1   109.5600471 388.275200
   3124   3123   3126     1   108.7700466 392.459200
   3124   3123   3125     1   107.5800459 329.699200
   3125   3123   3126     1   108.7700466 392.459200
   3126   3128   3129     1   106.5500460 417.563200
   3131   3134   3135     1   109.8000471 387.438400
   3131   3134   3136     1   109.8000471 387.438400
   3132   3131   3134     1   109.5600471 388.275200
   3132   3131   3161     1   109.7800468 425.094400
   3132   3131   3133     1   108.4600466 328.025600
   3133   3131   3134     1   109.5600471 388.275200
   3133   3131   3161     1   109.7800468 425.094400
   3134   3137   3138     1   109.5600471 388.275200
   3134   3137   3139     1   109.5600471 388.275200
   3135   3134   3137     1   109.8000471 387.438400
   3135   3134   3136     1   107.5800459 329.699200
   3136   3134   3137     1   109.8000471 387.438400
   3138   3137   3140     1   109.8800469 414.216000
   3138   3137   3139     1   108.4600466 328.025600
   3139   3137   3140     1   109.8800469 414.216000
   3140   3141   3142     1   109.8800469 414.216000
   3140   3141   3143     1   109.8800469 414.216000
   3140   3151   3152     1   109.8800469 414.216000
   3140   3151   3153     1   109.8800469 414.216000
   3141   3144   3145     1   109.8000471 387.438400
   3141   3144   3146     1   109.8000471 387.438400
   3142   3141   3144     1   109.5600471 388.275200
   3142   3141   3143     1   108.4600466 328.025600
   3143   3141   3144     1   109.5600471 388.275200
   3145   3144   3147     1   108.7700466 392.459200
   3145   3144   3146     1   107.5800459 329.699200
   3146   3144   3147     1   108.7700466 392.459200
   3147   3149   3150     1   106.5500460 417.563200
   3151   3154   3155     1   109.8000471 387.438400
   3151   3154   3156     1   109.8000471 387.438400
   3152   3151   3154     1   109.5600471 388.275200
   3152   3151   3153     1   108.4600466 328.025600
   3153   3151   3154     1   109.5600471 388.275200
   3155   3154   3157     1   108.7700466 392.459200
   3155   3154   3156     1   107.5800459 329.699200
   3156   3154   3157     1   108.7700466 392.459200
   3157   3159   3160     1   106.5500460 417.563200
   3162   3165   3166     1   109.8000471 387.438400
   3162   3165   3167     1   109.8000471 387.438400
   3163   3162   3165     1   109.5600471 388.275200
   3163   3162   3192     1   109.7800468 425.094400
   3163   3162   3164     1   108.4600466 328.025600
   3164   3162   3165     1   109.5600471 388.275200
   3164   3162   3192     1   109.7800468 425.094400
   3165   3168   3169     1   109.5600471 388.275200
   3165   3168   3170     1   109.5600471 388.275200
   3166   3165   3168     1   109.8000471 387.438400
   3166   3165   3167     1   107.5800459 329.699200
   3167   3165   3168     1   109.8000471 387.438400
   3169   3168   3171     1   109.8800469 414.216000
   3169   3168   3170     1   108.4600466 328.025600
   3170   3168   3171     1   109.8800469 414.216000
   3171   3172   3173     1   109.8800469 414.216000
   3171   3172   3174     1   109.8800469 414.216000
   3171   3182   3183     1   109.8800469 414.216000
   3171   3182   3184     1   109.8800469 414.216000
   3172   3175   3176     1   109.8000471 387.438400
   3172   3175   3177     1   109.8000471 387.438400
   3173   3172   3175     1   109.5600471 388.275200
   3173   3172   3174     1   108.4600466 328.025600
   3174   3172   3175     1   109.5600471 388.275200
   3176   3175   3178     1   108.7700466 392.459200
   3176   3175   3177     1   107.5800459 329.699200
   3177   3175   3178     1   108.7700466 392.459200
   3178   3180   3181     1   106.5500460 417.563200
   3182   3185   3186     1   109.8000471 387.438400
   3182   3185   3187     1   109.8000471 387.438400
   3183   3182   3185     1   109.5600471 388.275200
   3183   3182   3184     1   108.4600466 328.025600
   3184   3182   3185     1   109.5600471 388.275200
   3186   3185   3188     1   108.7700466 392.459200
   3186   3185   3187     1   107.5800459 329.699200
   3187   3185   3188     1   108.7700466 392.459200
   3188   3190   3191     1   106.5500460 417.563200
   3193   3196   3197     1   109.8000471 387.438400
   3193   3196   3198     1   109.8000471 387.438400
   3194   3193   3196     1   109.5600471 388.275200
   3194   3193   3223     1   109.7800468 425.094400
   3194   3193   3195     1   108.4600466 328.025600
   3195   3193   3196     1   109.5600471 388.275200
   3195   3193   3223     1   109.7800468 425.094400
   3196   3199   3200     1   109.5600471 388.275200
   3196   3199   3201     1   109.5600471 388.275200
   3197   3196   3199     1   109.8000471 387.438400
   3197   3196   3198     1   107.5800459 329.699200
   3198   3196   3199     1   109.8000471 387.438400
   3200   3199   3202     1   109.8800469 414.216000
   3200   3199   3201     1   108.4600466 328.025600
   3201   3199   3202     1   109.8800469 414.216000
   3202   3203   3204     1   109.8800469 414.216000
   3202   3203   3205     1   109.8800469 414.216000
   3202   3213   3214     1   109.8800469 414.216000
   3202   3213   3215     1   109.8800469 414.216000
   3203   3206   3207     1   109.8000471 387.438400
   3203   3206   3208     1   109.8000471 387.438400
   3204   3203   3206     1   109.5600471 388.275200
   3204   3203   3205     1   108.4600466 328.025600
   3205   3203   3206     1   109.5600471 388.275200
   3207   3206   3209     1   108.7700466 392.459200
   3207   3206   3208     1   107.5800459 329.699200
   3208   3206   3209     1   108.7700466 392.459200
   3209   3211   3212     1   106.5500460 417.563200
   3213   3216   3217     1   109.8000471 387.438400
   3213   3216   3218     1   109.8000471 387.438400
   3214   3213   3216     1   109.5600471 388.275200
   3214   3213   3215     1   108.4600466 328.025600
   3215   3213   3216     1   109.5600471 388.275200
   3217   3216   3219     1   108.7700466 392.459200
   3217   3216   3218     1   107.5800459 329.699200
   3218   3216   3219     1   108.7700466 392.459200
   3219   3221   3222     1   106.5500460 417.563200
   3224   3227   3228     1   109.8000471 387.438400
   3224   3227   3229     1   109.8000471 387.438400
   3225   3224   3227     1   109.5600471 388.275200
   3225   3224   3254     1   109.7800468 425.094400
   3225   3224   3226     1   108.4600466 328.025600
   3226   3224   3227     1   109.5600471 388.275200
   3226   3224   3254     1   109.7800468 425.094400
   3227   3230   3231     1   109.5600471 388.275200
   3227   3230   3232     1   109.5600471 388.275200
   3228   3227   3230     1   109.8000471 387.438400
   3228   3227   3229     1   107.5800459 329.699200
   3229   3227   3230     1   109.8000471 387.438400
   3231   3230   3233     1   109.8800469 414.216000
   3231   3230   3232     1   108.4600466 328.025600
   3232   3230   3233     1   109.8800469 414.216000
   3233   3234   3235     1   109.8800469 414.216000
   3233   3234   3236     1   109.8800469 414.216000
   3233   3244   3245     1   109.8800469 414.216000
   3233   3244   3246     1   109.8800469 414.216000
   3234   3237   3238     1   109.8000471 387.438400
   3234   3237   3239     1   109.8000471 387.438400
   3235   3234   3237     1   109.5600471 388.275200
   3235   3234   3236     1   108.4600466 328.025600
   3236   3234   3237     1   109.5600471 388.275200
   3238   3237   3240     1   108.7700466 392.459200
   3238   3237   3239     1   107.5800459 329.699200
   3239   3237   3240     1   108.7700466 392.459200
   3240   3242   3243     1   106.5500460 417.563200
   3244   3247   3248     1   109.8000471 387.438400
   3244   3247   3249     1   109.8000471 387.438400
   3245   3244   3247     1   109.5600471 388.275200
   3245   3244   3246     1   108.4600466 328.025600
   3246   3244   3247     1   109.5600471 388.275200
   3248   3247   3250     1   108.7700466 392.459200
   3248   3247   3249     1   107.5800459 329.699200
   3249   3247   3250     1   108.7700466 392.459200
   3250   3252   3253     1   106.5500460 417.563200
   3255   3258   3259     1   109.8000471 387.438400
   3255   3258   3260     1   109.8000471 387.438400
   3256   3255   3258     1   109.5600471 388.275200
   3256   3255   3285     1   109.7800468 425.094400
   3256   3255   3257     1   108.4600466 328.025600
   3257   3255   3258     1   109.5600471 388.275200
   3257   3255   3285     1   109.7800468 425.094400
   3258   3261   3262     1   109.5600471 388.275200
   3258   3261   3263     1   109.5600471 388.275200
   3259   3258   3261     1   109.8000471 387.438400
   3259   3258   3260     1   107.5800459 329.699200
   3260   3258   3261     1   109.8000471 387.438400
   3262   3261   3264     1   109.8800469 414.216000
   3262   3261   3263     1   108.4600466 328.025600
   3263   3261   3264     1   109.8800469 414.216000
   3264   3265   3266     1   109.8800469 414.216000
   3264   3265   3267     1   109.8800469 414.216000
   3264   3275   3276     1   109.8800469 414.216000
   3264   3275   3277     1   109.8800469 414.216000
   3265   3268   3269     1   109.8000471 387.438400
   3265   3268   3270     1   109.8000471 387.438400
   3266   3265   3268     1   109.5600471 388.275200
   3266   3265   3267     1   108.4600466 328.025600
   3267   3265   3268     1   109.5600471 388.275200
   3269   3268   3271     1   108.7700466 392.459200
   3269   3268   3270     1   107.5800459 329.699200
   3270   3268   3271     1   108.7700466 392.459200
   3271   3273   3274     1   106.5500460 417.563200
   3275   3278   3279     1   109.8000471 387.438400
   3275   3278   3280     1   109.8000471 387.438400
   3276   3275   3278     1   109.5600471 388.275200
   3276   3275   3277     1   108.4600466 328.025600
   3277   3275   3278     1   109.5600471 388.275200
   3279   3278   3281     1   108.7700466 392.459200
   3279   3278   3280     1   107.5800459 329.699200
   3280   3278   3281     1   108.7700466 392.459200
   3281   3283   3284     1   106.5500460 417.563200
   3286   3289   3290     1   109.8000471 387.438400
   3286   3289   3291     1   109.8000471 387.438400
   3287   3286   3289     1   109.5600471 388.275200
   3287   3286   3316     1   109.7800468 425.094400
   3287   3286   3288     1   108.4600466 328.025600
   3288   3286   3289     1   109.5600471 388.275200
   3288   3286   3316     1   109.7800468 425.094400
   3289   3292   3293     1   109.5600471 388.275200
   3289   3292   3294     1   109.5600471 388.275200
   3290   3289   3292     1   109.8000471 387.438400
   3290   3289   3291     1   107.5800459 329.699200
   3291   3289   3292     1   109.8000471 387.438400
   3293   3292   3295     1   109.8800469 414.216000
   3293   3292   3294     1   108.4600466 328.025600
   3294   3292   3295     1   109.8800469 414.216000
   3295   3296   3297     1   109.8800469 414.216000
   3295   3296   3298     1   109.8800469 414.216000
   3295   3306   3307     1   109.8800469 414.216000
   3295   3306   3308     1   109.8800469 414.216000
   3296   3299   3300     1   109.8000471 387.438400
   3296   3299   3301     1   109.8000471 387.438400
   3297   3296   3299     1   109.5600471 388.275200
   3297   3296   3298     1   108.4600466 328.025600
   3298   3296   3299     1   109.5600471 388.275200
   3300   3299   3302     1   108.7700466 392.459200
   3300   3299   3301     1   107.5800459 329.699200
   3301   3299   3302     1   108.7700466 392.459200
   3302   3304   3305     1   106.5500460 417.563200
   3306   3309   3310     1   109.8000471 387.438400
   3306   3309   3311     1   109.8000471 387.438400
   3307   3306   3309     1   109.5600471 388.275200
   3307   3306   3308     1   108.4600466 328.025600
   3308   3306   3309     1   109.5600471 388.275200
   3310   3309   3312     1   108.7700466 392.459200
   3310   3309   3311     1   107.5800459 329.699200
   3311   3309   3312     1   108.7700466 392.459200
   3312   3314   3315     1   106.5500460 417.563200
   3317   3320   3321     1   109.8000471 387.438400
   3317   3320   3322     1   109.8000471 387.438400
   3318   3317   3320     1   109.5600471 388.275200
   3318   3317   3347     1   109.7800468 425.094400
   3318   3317   3319     1   108.4600466 328.025600
   3319   3317   3320     1   109.5600471 388.275200
   3319   3317   3347     1   109.7800468 425.094400
   3320   3323   3324     1   109.5600471 388.275200
   3320   3323   3325     1   109.5600471 388.275200
   3321   3320   3323     1   109.8000471 387.438400
   3321   3320   3322     1   107.5800459 329.699200
   3322   3320   3323     1   109.8000471 387.438400
   3324   3323   3326     1   109.8800469 414.216000
   3324   3323   3325     1   108.4600466 328.025600
   3325   3323   3326     1   109.8800469 414.216000
   3326   3327   3328     1   109.8800469 414.216000
   3326   3327   3329     1   109.8800469 414.216000
   3326   3337   3338     1   109.8800469 414.216000
   3326   3337   3339     1   109.8800469 414.216000
   3327   3330   3331     1   109.8000471 387.438400
   3327   3330   3332     1   109.8000471 387.438400
   3328   3327   3330     1   109.5600471 388.275200
   3328   3327   3329     1   108.4600466 328.025600
   3329   3327   3330     1   109.5600471 388.275200
   3331   3330   3333     1   108.7700466 392.459200
   3331   3330   3332     1   107.5800459 329.699200
   3332   3330   3333     1   108.7700466 392.459200
   3333   3335   3336     1   106.5500460 417.563200
   3337   3340   3341     1   109.8000471 387.438400
   3337   3340   3342     1   109.8000471 387.438400
   3338   3337   3340     1   109.5600471 388.275200
   3338   3337   3339     1   108.4600466 328.025600
   3339   3337   3340     1   109.5600471 388.275200
   3341   3340   3343     1   108.7700466 392.459200
   3341   3340   3342     1   107.5800459 329.699200
   3342   3340   3343     1   108.7700466 392.459200
   3343   3345   3346     1   106.5500460 417.563200
   3348   3351   3352     1   109.8000471 387.438400
   3348   3351   3353     1   109.8000471 387.438400
   3349   3348   3351     1   109.5600471 388.275200
   3349   3348   3378     1   109.7800468 425.094400
   3349   3348   3350     1   108.4600466 328.025600
   3350   3348   3351     1   109.5600471 388.275200
   3350   3348   3378     1   109.7800468 425.094400
   3351   3354   3355     1   109.5600471 388.275200
   3351   3354   3356     1   109.5600471 388.275200
   3352   3351   3354     1   109.8000471 387.438400
   3352   3351   3353     1   107.5800459 329.699200
   3353   3351   3354     1   109.8000471 387.438400
   3355   3354   3357     1   109.8800469 414.216000
   3355   3354   3356     1   108.4600466 328.025600
   3356   3354   3357     1   109.8800469 414.216000
   3357   3358   3359     1   109.8800469 414.216000
   3357   3358   3360     1   109.8800469 414.216000
   3357   3368   3369     1   109.8800469 414.216000
   3357   3368   3370     1   109.8800469 414.216000
   3358   3361   3362     1   109.8000471 387.438400
   3358   3361   3363     1   109.8000471 387.438400
   3359   3358   3361     1   109.5600471 388.275200
   3359   3358   3360     1   108.4600466 328.025600
   3360   3358   3361     1   109.5600471 388.275200
   3362   3361   3364     1   108.7700466 392.459200
   3362   3361   3363     1   107.5800459 329.699200
   3363   3361   3364     1   108.7700466 392.459200
   3364   3366   3367     1   106.5500460 417.563200
   3368   3371   3372     1   109.8000471 387.438400
   3368   3371   3373     1   109.8000471 387.438400
   3369   3368   3371     1   109.5600471 388.275200
   3369   3368   3370     1   108.4600466 328.025600
   3370   3368   3371     1   109.5600471 388.275200
   3372   3371   3374     1   108.7700466 392.459200
   3372   3371   3373     1   107.5800459 329.699200
   3373   3371   3374     1   108.7700466 392.459200
   3374   3376   3377     1   106.5500460 417.563200
   3379   3382   3383     1   109.8000471 387.438400
   3379   3382   3384     1   109.8000471 387.438400
   3380   3379   3382     1   109.5600471 388.275200
   3380   3379   3409     1   109.7800468 425.094400
   3380   3379   3381     1   108.4600466 328.025600
   3381   3379   3382     1   109.5600471 388.275200
   3381   3379   3409     1   109.7800468 425.094400
   3382   3385   3386     1   109.5600471 388.275200
   3382   3385   3387     1   109.5600471 388.275200
   3383   3382   3385     1   109.8000471 387.438400
   3383   3382   3384     1   107.5800459 329.699200
   3384   3382   3385     1   109.8000471 387.438400
   3386   3385   3388     1   109.8800469 414.216000
   3386   3385   3387     1   108.4600466 328.025600
   3387   3385   3388     1   109.8800469 414.216000
   3388   3389   3390     1   109.8800469 414.216000
   3388   3389   3391     1   109.8800469 414.216000
   3388   3399   3400     1   109.8800469 414.216000
   3388   3399   3401     1   109.8800469 414.216000
   3389   3392   3393     1   109.8000471 387.438400
   3389   3392   3394     1   109.8000471 387.438400
   3390   3389   3392     1   109.5600471 388.275200
   3390   3389   3391     1   108.4600466 328.025600
   3391   3389   3392     1   109.5600471 388.275200
   3393   3392   3395     1   108.7700466 392.459200
   3393   3392   3394     1   107.5800459 329.699200
   3394   3392   3395     1   108.7700466 392.459200
   3395   3397   3398     1   106.5500460 417.563200
   3399   3402   3403     1   109.8000471 387.438400
   3399   3402   3404     1   109.8000471 387.438400
   3400   3399   3402     1   109.5600471 388.275200
   3400   3399   3401     1   108.4600466 328.025600
   3401   3399   3402     1   109.5600471 388.275200
   3403   3402   3405     1   108.7700466 392.459200
   3403   3402   3404     1   107.5800459 329.699200
   3404   3402   3405     1   108.7700466 392.459200
   3405   3407   3408     1   106.5500460 417.563200
   3410   3413   3414     1   109.8000471 387.438400
   3410   3413   3415     1   109.8000471 387.438400
   3411   3410   3413     1   109.5600471 388.275200
   3411   3410   3440     1   109.7800468 425.094400
   3411   3410   3412     1   108.4600466 328.025600
   3412   3410   3413     1   109.5600471 388.275200
   3412   3410   3440     1   109.7800468 425.094400
   3413   3416   3417     1   109.5600471 388.275200
   3413   3416   3418     1   109.5600471 388.275200
   3414   3413   3416     1   109.8000471 387.438400
   3414   3413   3415     1   107.5800459 329.699200
   3415   3413   3416     1   109.8000471 387.438400
   3417   3416   3419     1   109.8800469 414.216000
   3417   3416   3418     1   108.4600466 328.025600
   3418   3416   3419     1   109.8800469 414.216000
   3419   3420   3421     1   109.8800469 414.216000
   3419   3420   3422     1   109.8800469 414.216000
   3419   3430   3431     1   109.8800469 414.216000
   3419   3430   3432     1   109.8800469 414.216000
   3420   3423   3424     1   109.8000471 387.438400
   3420   3423   3425     1   109.8000471 387.438400
   3421   3420   3423     1   109.5600471 388.275200
   3421   3420   3422     1   108.4600466 328.025600
   3422   3420   3423     1   109.5600471 388.275200
   3424   3423   3426     1   108.7700466 392.459200
   3424   3423   3425     1   107.5800459 329.699200
   3425   3423   3426     1   108.7700466 392.459200
   3426   3428   3429     1   106.5500460 417.563200
   3430   3433   3434     1   109.8000471 387.438400
   3430   3433   3435     1   109.8000471 387.438400
   3431   3430   3433     1   109.5600471 388.275200
   3431   3430   3432     1   108.4600466 328.025600
   3432   3430   3433     1   109.5600471 388.275200
   3434   3433   3436     1   108.7700466 392.459200
   3434   3433   3435     1   107.5800459 329.699200
   3435   3433   3436     1   108.7700466 392.459200
   3436   3438   3439     1   106.5500460 417.563200
   3441   3444   3445     1   109.8000471 387.438400
   3441   3444   3446     1   109.8000471 387.438400
   3442   3441   3444     1   109.5600471 388.275200
   3442   3441   3471     1   109.7800468 425.094400
   3442   3441   3443     1   108.4600466 328.025600
   3443   3441   3444     1   109.5600471 388.275200
   3443   3441   3471     1   109.7800468 425.094400
   3444   3447   3448     1   109.5600471 388.275200
   3444   3447   3449     1   109.5600471 388.275200
   3445   3444   3447     1   109.8000471 387.438400
   3445   3444   3446     1   107.5800459 329.699200
   3446   3444   3447     1   109.8000471 387.438400
   3448   3447   3450     1   109.8800469 414.216000
   3448   3447   3449     1   108.4600466 328.025600
   3449   3447   3450     1   109.8800469 414.216000
   3450   3451   3452     1   109.8800469 414.216000
   3450   3451   3453     1   109.8800469 414.216000
   3450   3461   3462     1   109.8800469 414.216000
   3450   3461   3463     1   109.8800469 414.216000
   3451   3454   3455     1   109.8000471 387.438400
   3451   3454   3456     1   109.8000471 387.438400
   3452   3451   3454     1   109.5600471 388.275200
   3452   3451   3453     1   108.4600466 328.025600
   3453   3451   3454     1   109.5600471 388.275200
   3455   3454   3457     1   108.7700466 392.459200
   3455   3454   3456     1   107.5800459 329.699200
   3456   3454   3457     1   108.7700466 392.459200
   3457   3459   3460     1   106.5500460 417.563200
   3461   3464   3465     1   109.8000471 387.438400
   3461   3464   3466     1   109.8000471 387.438400
   3462   3461   3464     1   109.5600471 388.275200
   3462   3461   3463     1   108.4600466 328.025600
   3463   3461   3464     1   109.5600471 388.275200
   3465   3464   3467     1   108.7700466 392.459200
   3465   3464   3466     1   107.5800459 329.699200
   3466   3464   3467     1   108.7700466 392.459200
   3467   3469   3470     1   106.5500460 417.563200
   3472   3475   3476     1   109.8000471 387.438400
   3472   3475   3477     1   109.8000471 387.438400
   3473   3472   3475     1   109.5600471 388.275200
   3473   3472   3502     1   109.7800468 425.094400
   3473   3472   3474     1   108.4600466 328.025600
   3474   3472   3475     1   109.5600471 388.275200
   3474   3472   3502     1   109.7800468 425.094400
   3475   3478   3479     1   109.5600471 388.275200
   3475   3478   3480     1   109.5600471 388.275200
   3476   3475   3478     1   109.8000471 387.438400
   3476   3475   3477     1   107.5800459 329.699200
   3477   3475   3478     1   109.8000471 387.438400
   3479   3478   3481     1   109.8800469 414.216000
   3479   3478   3480     1   108.4600466 328.025600
   3480   3478   3481     1   109.8800469 414.216000
   3481   3482   3483     1   109.8800469 414.216000
   3481   3482   3484     1   109.8800469 414.216000
   3481   3492   3493     1   109.8800469 414.216000
   3481   3492   3494     1   109.8800469 414.216000
   3482   3485   3486     1   109.8000471 387.438400
   3482   3485   3487     1   109.8000471 387.438400
   3483   3482   3485     1   109.5600471 388.275200
   3483   3482   3484     1   108.4600466 328.025600
   3484   3482   3485     1   109.5600471 388.275200
   3486   3485   3488     1   108.7700466 392.459200
   3486   3485   3487     1   107.5800459 329.699200
   3487   3485   3488     1   108.7700466 392.459200
   3488   3490   3491     1   106.5500460 417.563200
   3492   3495   3496     1   109.8000471 387.438400
   3492   3495   3497     1   109.8000471 387.438400
   3493   3492   3495     1   109.5600471 388.275200
   3493   3492   3494     1   108.4600466 328.025600
   3494   3492   3495     1   109.5600471 388.275200
   3496   3495   3498     1   108.7700466 392.459200
   3496   3495   3497     1   107.5800459 329.699200
   3497   3495   3498     1   108.7700466 392.459200
   3498   3500   3501     1   106.5500460 417.563200
   3503   3506   3507     1   109.8000471 387.438400
   3503   3506   3508     1   109.8000471 387.438400
   3504   3503   3506     1   109.5600471 388.275200
   3504   3503   3533     1   109.7800468 425.094400
   3504   3503   3505     1   108.4600466 328.025600
   3505   3503   3506     1   109.5600471 388.275200
   3505   3503   3533     1   109.7800468 425.094400
   3506   3509   3510     1   109.5600471 388.275200
   3506   3509   3511     1   109.5600471 388.275200
   3507   3506   3509     1   109.8000471 387.438400
   3507   3506   3508     1   107.5800459 329.699200
   3508   3506   3509     1   109.8000471 387.438400
   3510   3509   3512     1   109.8800469 414.216000
   3510   3509   3511     1   108.4600466 328.025600
   3511   3509   3512     1   109.8800469 414.216000
   3512   3513   3514     1   109.8800469 414.216000
   3512   3513   3515     1   109.8800469 414.216000
   3512   3523   3524     1   109.8800469 414.216000
   3512   3523   3525     1   109.8800469 414.216000
   3513   3516   3517     1   109.8000471 387.438400
   3513   3516   3518     1   109.8000471 387.438400
   3514   3513   3516     1   109.5600471 388.275200
   3514   3513   3515     1   108.4600466 328.025600
   3515   3513   3516     1   109.5600471 388.275200
   3517   3516   3519     1   108.7700466 392.459200
   3517   3516   3518     1   107.5800459 329.699200
   3518   3516   3519     1   108.7700466 392.459200
   3519   3521   3522     1   106.5500460 417.563200
   3523   3526   3527     1   109.8000471 387.438400
   3523   3526   3528     1   109.8000471 387.438400
   3524   3523   3526     1   109.5600471 388.275200
   3524   3523   3525     1   108.4600466 328.025600
   3525   3523   3526     1   109.5600471 388.275200
   3527   3526   3529     1   108.7700466 392.459200
   3527   3526   3528     1   107.5800459 329.699200
   3528   3526   3529     1   108.7700466 392.459200
   3529   3531   3532     1   106.5500460 417.563200
   3534   3537   3538     1   109.8000471 387.438400
   3534   3537   3539     1   109.8000471 387.438400
   3535   3534   3537     1   109.5600471 388.275200
   3535   3534   3564     1   109.7800468 425.094400
   3535   3534   3536     1   108.4600466 328.025600
   3536   3534   3537     1   109.5600471 388.275200
   3536   3534   3564     1   109.7800468 425.094400
   3537   3540   3541     1   109.5600471 388.275200
   3537   3540   3542     1   109.5600471 388.275200
   3538   3537   3540     1   109.8000471 387.438400
   3538   3537   3539     1   107.5800459 329.699200
   3539   3537   3540     1   109.8000471 387.438400
   3541   3540   3543     1   109.8800469 414.216000
   3541   3540   3542     1   108.4600466 328.025600
   3542   3540   3543     1   109.8800469 414.216000
   3543   3544   3545     1   109.8800469 414.216000
   3543   3544   3546     1   109.8800469 414.216000
   3543   3554   3555     1   109.8800469 414.216000
   3543   3554   3556     1   109.8800469 414.216000
   3544   3547   3548     1   109.8000471 387.438400
   3544   3547   3549     1   109.8000471 387.438400
   3545   3544   3547     1   109.5600471 388.275200
   3545   3544   3546     1   108.4600466 328.025600
   3546   3544   3547     1   109.5600471 388.275200
   3548   3547   3550     1   108.7700466 392.459200
   3548   3547   3549     1   107.5800459 329.699200
   3549   3547   3550     1   108.7700466 392.459200
   3550   3552   3553     1   106.5500460 417.563200
   3554   3557   3558     1   109.8000471 387.438400
   3554   3557   3559     1   109.8000471 387.438400
   3555   3554   3557     1   109.5600471 388.275200
   3555   3554   3556     1   108.4600466 328.025600
   3556   3554   3557     1   109.5600471 388.275200
   3558   3557   3560     1   108.7700466 392.459200
   3558   3557   3559     1   107.5800459 329.699200
   3559   3557   3560     1   108.7700466 392.459200
   3560   3562   3563     1   106.5500460 417.563200
   3565   3568   3569     1   109.8000471 387.438400
   3565   3568   3570     1   109.8000471 387.438400
   3566   3565   3568     1   109.5600471 388.275200
   3566   3565   3595     1   109.7800468 425.094400
   3566   3565   3567     1   108.4600466 328.025600
   3567   3565   3568     1   109.5600471 388.275200
   3567   3565   3595     1   109.7800468 425.094400
   3568   3571   3572     1   109.5600471 388.275200
   3568   3571   3573     1   109.5600471 388.275200
   3569   3568   3571     1   109.8000471 387.438400
   3569   3568   3570     1   107.5800459 329.699200
   3570   3568   3571     1   109.8000471 387.438400
   3572   3571   3574     1   109.8800469 414.216000
   3572   3571   3573     1   108.4600466 328.025600
   3573   3571   3574     1   109.8800469 414.216000
   3574   3575   3576     1   109.8800469 414.216000
   3574   3575   3577     1   109.8800469 414.216000
   3574   3585   3586     1   109.8800469 414.216000
   3574   3585   3587     1   109.8800469 414.216000
   3575   3578   3579     1   109.8000471 387.438400
   3575   3578   3580     1   109.8000471 387.438400
   3576   3575   3578     1   109.5600471 388.275200
   3576   3575   3577     1   108.4600466 328.025600
   3577   3575   3578     1   109.5600471 388.275200
   3579   3578   3581     1   108.7700466 392.459200
   3579   3578   3580     1   107.5800459 329.699200
   3580   3578   3581     1   108.7700466 392.459200
   3581   3583   3584     1   106.5500460 417.563200
   3585   3588   3589     1   109.8000471 387.438400
   3585   3588   3590     1   109.8000471 387.438400
   3586   3585   3588     1   109.5600471 388.275200
   3586   3585   3587     1   108.4600466 328.025600
   3587   3585   3588     1   109.5600471 388.275200
   3589   3588   3591     1   108.7700466 392.459200
   3589   3588   3590     1   107.5800459 329.699200
   3590   3588   3591     1   108.7700466 392.459200
   3591   3593   3594     1   106.5500460 417.563200
   3596   3599   3600     1   109.8000471 387.438400
   3596   3599   3601     1   109.8000471 387.438400
   3597   3596   3599     1   109.5600471 388.275200
   3597   3596   3626     1   109.7800468 425.094400
   3597   3596   3598     1   108.4600466 328.025600
   3598   3596   3599     1   109.5600471 388.275200
   3598   3596   3626     1   109.7800468 425.094400
   3599   3602   3603     1   109.5600471 388.275200
   3599   3602   3604     1   109.5600471 388.275200
   3600   3599   3602     1   109.8000471 387.438400
   3600   3599   3601     1   107.5800459 329.699200
   3601   3599   3602     1   109.8000471 387.438400
   3603   3602   3605     1   109.8800469 414.216000
   3603   3602   3604     1   108.4600466 328.025600
   3604   3602   3605     1   109.8800469 414.216000
   3605   3606   3607     1   109.8800469 414.216000
   3605   3606   3608     1   109.8800469 414.216000
   3605   3616   3617     1   109.8800469 414.216000
   3605   3616   3618     1   109.8800469 414.216000
   3606   3609   3610     1   109.8000471 387.438400
   3606   3609   3611     1   109.8000471 387.438400
   3607   3606   3609     1   109.5600471 388.275200
   3607   3606   3608     1   108.4600466 328.025600
   3608   3606   3609     1   109.5600471 388.275200
   3610   3609   3612     1   108.7700466 392.459200
   3610   3609   3611     1   107.5800459 329.699200
   3611   3609   3612     1   108.7700466 392.459200
   3612   3614   3615     1   106.5500460 417.563200
   3616   3619   3620     1   109.8000471 387.438400
   3616   3619   3621     1   109.8000471 387.438400
   3617   3616   3619     1   109.5600471 388.275200
   3617   3616   3618     1   108.4600466 328.025600
   3618   3616   3619     1   109.5600471 388.275200
   3620   3619   3622     1   108.7700466 392.459200
   3620   3619   3621     1   107.5800459 329.699200
   3621   3619   3622     1   108.7700466 392.459200
   3622   3624   3625     1   106.5500460 417.563200
   3627   3630   3631     1   109.8000471 387.438400
   3627   3630   3632     1   109.8000471 387.438400
   3628   3627   3630     1   109.5600471 388.275200
   3628   3627   3657     1   109.7800468 425.094400
   3628   3627   3629     1   108.4600466 328.025600
   3629   3627   3630     1   109.5600471 388.275200
   3629   3627   3657     1   109.7800468 425.094400
   3630   3633   3634     1   109.5600471 388.275200
   3630   3633   3635     1   109.5600471 388.275200
   3631   3630   3633     1   109.8000471 387.438400
   3631   3630   3632     1   107.5800459 329.699200
   3632   3630   3633     1   109.8000471 387.438400
   3634   3633   3636     1   109.8800469 414.216000
   3634   3633   3635     1   108.4600466 328.025600
   3635   3633   3636     1   109.8800469 414.216000
   3636   3637   3638     1   109.8800469 414.216000
   3636   3637   3639     1   109.8800469 414.216000
   3636   3647   3648     1   109.8800469 414.216000
   3636   3647   3649     1   109.8800469 414.216000
   3637   3640   3641     1   109.8000471 387.438400
   3637   3640   3642     1   109.8000471 387.438400
   3638   3637   3640     1   109.5600471 388.275200
   3638   3637   3639     1   108.4600466 328.025600
   3639   3637   3640     1   109.5600471 388.275200
   3641   3640   3643     1   108.7700466 392.459200
   3641   3640   3642     1   107.5800459 329.699200
   3642   3640   3643     1   108.7700466 392.459200
   3643   3645   3646     1   106.5500460 417.563200
   3647   3650   3651     1   109.8000471 387.438400
   3647   3650   3652     1   109.8000471 387.438400
   3648   3647   3650     1   109.5600471 388.275200
   3648   3647   3649     1   108.4600466 328.025600
   3649   3647   3650     1   109.5600471 388.275200
   3651   3650   3653     1   108.7700466 392.459200
   3651   3650   3652     1   107.5800459 329.699200
   3652   3650   3653     1   108.7700466 392.459200
   3653   3655   3656     1   106.5500460 417.563200
   3658   3661   3662     1   109.8000471 387.438400
   3658   3661   3663     1   109.8000471 387.438400
   3659   3658   3661     1   109.5600471 388.275200
   3659   3658   3688     1   109.7800468 425.094400
   3659   3658   3660     1   108.4600466 328.025600
   3660   3658   3661     1   109.5600471 388.275200
   3660   3658   3688     1   109.7800468 425.094400
   3661   3664   3665     1   109.5600471 388.275200
   3661   3664   3666     1   109.5600471 388.275200
   3662   3661   3664     1   109.8000471 387.438400
   3662   3661   3663     1   107.5800459 329.699200
   3663   3661   3664     1   109.8000471 387.438400
   3665   3664   3667     1   109.8800469 414.216000
   3665   3664   3666     1   108.4600466 328.025600
   3666   3664   3667     1   109.8800469 414.216000
   3667   3668   3669     1   109.8800469 414.216000
   3667   3668   3670     1   109.8800469 414.216000
   3667   3678   3679     1   109.8800469 414.216000
   3667   3678   3680     1   109.8800469 414.216000
   3668   3671   3672     1   109.8000471 387.438400
   3668   3671   3673     1   109.8000471 387.438400
   3669   3668   3671     1   109.5600471 388.275200
   3669   3668   3670     1   108.4600466 328.025600
   3670   3668   3671     1   109.5600471 388.275200
   3672   3671   3674     1   108.7700466 392.459200
   3672   3671   3673     1   107.5800459 329.699200
   3673   3671   3674     1   108.7700466 392.459200
   3674   3676   3677     1   106.5500460 417.563200
   3678   3681   3682     1   109.8000471 387.438400
   3678   3681   3683     1   109.8000471 387.438400
   3679   3678   3681     1   109.5600471 388.275200
   3679   3678   3680     1   108.4600466 328.025600
   3680   3678   3681     1   109.5600471 388.275200
   3682   3681   3684     1   108.7700466 392.459200
   3682   3681   3683     1   107.5800459 329.699200
   3683   3681   3684     1   108.7700466 392.459200
   3684   3686   3687     1   106.5500460 417.563200
   3689   3692   3693     1   109.8000471 387.438400
   3689   3692   3694     1   109.8000471 387.438400
   3690   3689   3692     1   109.5600471 388.275200
   3690   3689   3719     1   109.7800468 425.094400
   3690   3689   3691     1   108.4600466 328.025600
   3691   3689   3692     1   109.5600471 388.275200
   3691   3689   3719     1   109.7800468 425.094400
   3692   3695   3696     1   109.5600471 388.275200
   3692   3695   3697     1   109.5600471 388.275200
   3693   3692   3695     1   109.8000471 387.438400
   3693   3692   3694     1   107.5800459 329.699200
   3694   3692   3695     1   109.8000471 387.438400
   3696   3695   3698     1   109.8800469 414.216000
   3696   3695   3697     1   108.4600466 328.025600
   3697   3695   3698     1   109.8800469 414.216000
   3698   3699   3700     1   109.8800469 414.216000
   3698   3699   3701     1   109.8800469 414.216000
   3698   3709   3710     1   109.8800469 414.216000
   3698   3709   3711     1   109.8800469 414.216000
   3699   3702   3703     1   109.8000471 387.438400
   3699   3702   3704     1   109.8000471 387.438400
   3700   3699   3702     1   109.5600471 388.275200
   3700   3699   3701     1   108.4600466 328.025600
   3701   3699   3702     1   109.5600471 388.275200
   3703   3702   3705     1   108.7700466 392.459200
   3703   3702   3704     1   107.5800459 329.699200
   3704   3702   3705     1   108.7700466 392.459200
   3705   3707   3708     1   106.5500460 417.563200
   3709   3712   3713     1   109.8000471 387.438400
   3709   3712   3714     1   109.8000471 387.438400
   3710   3709   3712     1   109.5600471 388.275200
   3710   3709   3711     1   108.4600466 328.025600
   3711   3709   3712     1   109.5600471 388.275200
   3713   3712   3715     1   108.7700466 392.459200
   3713   3712   3714     1   107.5800459 329.699200
   3714   3712   3715     1   108.7700466 392.459200
   3715   3717   3718     1   106.5500460 417.563200
   3720   3723   3724     1   109.8000471 387.438400
   3720   3723   3725     1   109.8000471 387.438400
   3721   3720   3723     1   109.5600471 388.275200
   3721   3720   3750     1   109.7800468 425.094400
   3721   3720   3722     1   108.4600466 328.025600
   3722   3720   3723     1   109.5600471 388.275200
   3722   3720   3750     1   109.7800468 425.094400
   3723   3726   3727     1   109.5600471 388.275200
   3723   3726   3728     1   109.5600471 388.275200
   3724   3723   3726     1   109.8000471 387.438400
   3724   3723   3725     1   107.5800459 329.699200
   3725   3723   3726     1   109.8000471 387.438400
   3727   3726   3729     1   109.8800469 414.216000
   3727   3726   3728     1   108.4600466 328.025600
   3728   3726   3729     1   109.8800469 414.216000
   3729   3730   3731     1   109.8800469 414.216000
   3729   3730   3732     1   109.8800469 414.216000
   3729   3740   3741     1   109.8800469 414.216000
   3729   3740   3742     1   109.8800469 414.216000
   3730   3733   3734     1   109.8000471 387.438400
   3730   3733   3735     1   109.8000471 387.438400
   3731   3730   3733     1   109.5600471 388.275200
   3731   3730   3732     1   108.4600466 328.025600
   3732   3730   3733     1   109.5600471 388.275200
   3734   3733   3736     1   108.7700466 392.459200
   3734   3733   3735     1   107.5800459 329.699200
   3735   3733   3736     1   108.7700466 392.459200
   3736   3738   3739     1   106.5500460 417.563200
   3740   3743   3744     1   109.8000471 387.438400
   3740   3743   3745     1   109.8000471 387.438400
   3741   3740   3743     1   109.5600471 388.275200
   3741   3740   3742     1   108.4600466 328.025600
   3742   3740   3743     1   109.5600471 388.275200
   3744   3743   3746     1   108.7700466 392.459200
   3744   3743   3745     1   107.5800459 329.699200
   3745   3743   3746     1   108.7700466 392.459200
   3746   3748   3749     1   106.5500460 417.563200
   3751   3754   3755     1   109.8000471 387.438400
   3751   3754   3756     1   109.8000471 387.438400
   3752   3751   3754     1   109.5600471 388.275200
   3752   3751   3781     1   109.7800468 425.094400
   3752   3751   3753     1   108.4600466 328.025600
   3753   3751   3754     1   109.5600471 388.275200
   3753   3751   3781     1   109.7800468 425.094400
   3754   3757   3758     1   109.5600471 388.275200
   3754   3757   3759     1   109.5600471 388.275200
   3755   3754   3757     1   109.8000471 387.438400
   3755   3754   3756     1   107.5800459 329.699200
   3756   3754   3757     1   109.8000471 387.438400
   3758   3757   3760     1   109.8800469 414.216000
   3758   3757   3759     1   108.4600466 328.025600
   3759   3757   3760     1   109.8800469 414.216000
   3760   3761   3762     1   109.8800469 414.216000
   3760   3761   3763     1   109.8800469 414.216000
   3760   3771   3772     1   109.8800469 414.216000
   3760   3771   3773     1   109.8800469 414.216000
   3761   3764   3765     1   109.8000471 387.438400
   3761   3764   3766     1   109.8000471 387.438400
   3762   3761   3764     1   109.5600471 388.275200
   3762   3761   3763     1   108.4600466 328.025600
   3763   3761   3764     1   109.5600471 388.275200
   3765   3764   3767     1   108.7700466 392.459200
   3765   3764   3766     1   107.5800459 329.699200
   3766   3764   3767     1   108.7700466 392.459200
   3767   3769   3770     1   106.5500460 417.563200
   3771   3774   3775     1   109.8000471 387.438400
   3771   3774   3776     1   109.8000471 387.438400
   3772   3771   3774     1   109.5600471 388.275200
   3772   3771   3773     1   108.4600466 328.025600
   3773   3771   3774     1   109.5600471 388.275200
   3775   3774   3777     1   108.7700466 392.459200
   3775   3774   3776     1   107.5800459 329.699200
   3776   3774   3777     1   108.7700466 392.459200
   3777   3779   3780     1   106.5500460 417.563200

[ dihedrals ]
;    ai     aj     ak     al funct         c0         c1         c2         c3         c4         c5
      1      2      8     14     1  0.0000000  0.6508444  3
      1      5     11     17     1  0.0000000  0.6508444  3
      2      1      5     11     1  180.0000771  0.4184000  2
      2      1      5     11     1  0.0000000  1.6024720  3
      2      8     14     20     1  0.0000000  0.6508444  3
      5      1      2      8     1  180.0000771  0.4184000  2
      5      1      2      8     1  0.0000000  1.6024720  3
      5     11     17     21     1  0.0000000  0.6508444  3
      8     14     20     28     1  180.0000771  2.0083200  2
      8     14     20     28     1  0.0000000  1.2552000  3
      8     14     20     31     1  180.0000771  2.0083200  2
      8     14     20     31     1  0.0000000  1.2552000  3
     11     17     21     22     1  180.0000771  2.0083200  2
     11     17     21     22     1  0.0000000  1.2552000  3
     11     17     21     25     1  180.0000771  2.0083200  2
     11     17     21     25     1  0.0000000  1.2552000  3
     14     20     28     40     1  180.0000771  2.0083200  2
     14     20     28     40     1  0.0000000  1.2552000  3
     14     20     31     43     1  180.0000771  2.0083200  2
     14     20     31     43     1  0.0000000  1.2552000  3
     17     21     22     34     1  180.0000771  2.0083200  2
     17     21     22     34     1  0.0000000  1.2552000  3
     17     21     25     37     1  180.0000771  2.0083200  2
     17     21     25     37     1  0.0000000  1.2552000  3
     20     28     40     49     1  0.0000000  0.6508444  3
     20     31     43     46     1  0.0000000  0.6508444  3
     21     22     34     55     1  0.0000000  0.6508444  3
     21     25     37     52     1  0.0000000  0.6508444  3
     22     21     25     37     1  180.0000771  2.0083200  2
     22     21     25     37     1  0.0000000  1.2552000  3
     22     34     55    173     1  0.0000000  0.6508444  3
     25     21     22     34     1  180.0000771  2.0083200  2
     25     21     22     34     1  0.0000000  1.2552000  3
     25     37     52    144     1  0.0000000  0.6508444  3
     28     20     31     43     1  180.0000771  2.0083200  2
     28     20     31     43     1  0.0000000  1.2552000  3
     28     40     49    115     1  0.0000000  0.6508444  3
     31     20     28     40     1  180.0000771  2.0083200  2
     31     20     28     40     1  0.0000000  1.2552000  3
     31     43     46     86     1  0.0000000  0.6508444  3
     34     55    173    164     1  180.0000771  0.4184000  2
     34     55    173    164     1  0.0000000  1.6024720  3
     37     52    144    135     1  180.0000771  0.4184000  2
     37     52    144    135     1  0.0000000  1.6024720  3
     40     49    115    106     1  180.0000771  0.4184000  2
     40     49    115    106     1  0.0000000  1.6024720  3
     43     46     86     77     1  180.0000771  0.4184000  2
     43     46     86     77     1  0.0000000  1.6024720  3
     46     86     77     68     1  180.0000771  0.4184000  2
     46     86     77     68     1  0.0000000  1.6024720  3
     49    115    106     97     1  180.0000771  0.4184000  2
     49    115    106     97     1  0.0000000  1.6024720  3
     52    144    135    126     1  180.0000771  0.4184000  2
     52    144    135    126     1  0.0000000  1.6024720  3
     55    173    164    155     1  180.0000771  0.4184000  2
     55    173    164    155     1  0.0000000  1.6024720  3
     58     59     71     83     1  0.0000000  0.6508444  3
     58     62     74     80     1  0.0000000  0.6508444  3
     58     65     68     77     1  0.0000000  0.6508444  3
     59     58     62     74     1  180.0000771  2.0083200  2
     59     58     62     74     1  0.0000000  1.2552000  3
     59     58     65     68     1  180.0000771  2.0083200  2
     59     58     65     68     1  0.0000000  1.2552000  3
     59     71     83    231     1  0.0000000  0.6508444  3
     62     58     59     71     1  180.0000771  2.0083200  2
     62     58     59     71     1  0.0000000  1.2552000  3
     62     58     65     68     1  180.0000771  2.0083200  2
     62     58     65     68     1  0.0000000  1.2552000  3
     62     74     80    202     1  0.0000000  0.6508444  3
     65     58     59     71     1  180.0000771  2.0083200  2
     65     58     59     71     1  0.0000000  1.2552000  3
     65     58     62     74     1  180.0000771  2.0083200  2
     65     58     62     74     1  0.0000000  1.2552000  3
     65     68     77     86     1  0.0000000  0.6508444  3
     71     83    231    222     1  180.0000771  0.4184000  2
     71     83    231    222     1  0.0000000  1.6024720  3
     74     80    202    193     1  180.0000771  0.4184000  2
     74     80    202    193     1  0.0000000  1.6024720  3
     80    202    193    184     1  180.0000771  0.4184000  2
     80    202    193    184     1  0.0000000  1.6024720  3
     83    231    222    213     1  180.0000771  0.4184000  2
     83    231    222    213     1  0.0000000  1.6024720  3
     87     88    100    112     1  0.0000000  0.6508444  3
     87     91    103    109     1  0.0000000  0.6508444  3
     87     94     97    106     1  0.0000000  0.6508444  3
     88     87     91    103     1  180.0000771  2.0083200  2
     88     87     91    103     1  0.0000000  1.2552000  3
     88     87     94     97     1  180.0000771  2.0083200  2
     88     87     94     97     1  0.0000000  1.2552000  3
     88    100    112    289     1  0.0000000  0.6508444  3
     91     87     88    100     1  180.0000771  2.0083200  2
     91     87     88    100     1  0.0000000  1.2552000  3
     91     87     94     97     1  180.0000771  2.0083200  2
     91     87     94     97     1  0.0000000  1.2552000  3
     91    103    109    260     1  0.0000000  0.6508444  3
     94     87     88    100     1  180.0000771  2.0083200  2
     94     87     88    100     1  0.0000000  1.2552000  3
     94     87     91    103     1  180.0000771  2.0083200  2
     94     87     91    103     1  0.0000000  1.2552000  3
     94     97    106    115     1  0.0000000  0.6508444  3
    100    112    289    280     1  180.0000771  0.4184000  2
    100    112    289    280     1  0.0000000  1.6024720  3
    103    109    260    251     1  180.0000771  0.4184000  2
    103    109    260    251     1  0.0000000  1.6024720  3
    109    260    251    242     1  180.0000771  0.4184000  2
    109    260    251    242     1  0.0000000  1.6024720  3
    112    289    280    271     1  180.0000771  0.4184000  2
    112    289    280    271     1  0.0000000  1.6024720  3
    116    117    129    141     1  0.0000000  0.6508444  3
    116    120    132    138     1  0.0000000  0.6508444  3
    116    123    126    135     1  0.0000000  0.6508444  3
    117    116    120    132     1  180.0000771  2.0083200  2
    117    116    120    132     1  0.0000000  1.2552000  3
    117    116    123    126     1  180.0000771  2.0083200  2
    117    116    123    126     1  0.0000000  1.2552000  3
    117    129    141    347     1  0.0000000  0.6508444  3
    120    116    117    129     1  180.0000771  2.0083200  2
    120    116    117    129     1  0.0000000  1.2552000  3
    120    116    123    126     1  180.0000771  2.0083200  2
    120    116    123    126     1  0.0000000  1.2552000  3
    120    132    138    318     1  0.0000000  0.6508444  3
    123    116    117    129     1  180.0000771  2.0083200  2
    123    116    117    129     1  0.0000000  1.2552000  3
    123    116    120    132     1  180.0000771  2.0083200  2
    123    116    120    132     1  0.0000000  1.2552000  3
    123    126    135    144     1  0.0000000  0.6508444  3
    129    141    347    338     1  180.0000771  0.4184000  2
    129    141    347    338     1  0.0000000  1.6024720  3
    132    138    318    309     1  180.0000771  0.4184000  2
    132    138    318    309     1  0.0000000  1.6024720  3
    138    318    309    300     1  180.0000771  0.4184000  2
    138    318    309    300     1  0.0000000  1.6024720  3
    141    347    338    329     1  180.0000771  0.4184000  2
    141    347    338    329     1  0.0000000  1.6024720  3
    145    146    158    170     1  0.0000000  0.6508444  3
    145    149    161    167     1  0.0000000  0.6508444  3
    145    152    155    164     1  0.0000000  0.6508444  3
    146    145    149    161     1  180.0000771  2.0083200  2
    146    145    149    161     1  0.0000000  1.2552000  3
    146    145    152    155     1  180.0000771  2.0083200  2
    146    145    152    155     1  0.0000000  1.2552000  3
    146    158    170    405     1  0.0000000  0.6508444  3
    149    145    146    158     1  180.0000771  2.0083200  2
    149    145    146    158     1  0.0000000  1.2552000  3
    149    145    152    155     1  180.0000771  2.0083200  2
    149    145    152    155     1  0.0000000  1.2552000  3
    149    161    167    376     1  0.0000000  0.6508444  3
    152    145    146    158     1  180.0000771  2.0083200  2
    152    145    146    158     1  0.0000000  1.2552000  3
    152    145    149    161     1  180.0000771  2.0083200  2
    152    145    149    161     1  0.0000000  1.2552000  3
    152    155    164    173     1  0.0000000  0.6508444  3
    158    170    405    396     1  180.0000771  0.4184000  2
    158    170    405    396     1  0.0000000  1.6024720  3
    161    167    376    367     1  180.0000771  0.4184000  2
    161    167    376    367     1  0.0000000  1.6024720  3
    167    376    367    358     1  180.0000771  0.4184000  2
    167    376    367    358     1  0.0000000  1.6024720  3
    170    405    396    387     1  180.0000771  0.4184000  2
    170    405    396    387     1  0.0000000  1.6024720  3
    174    175    187    199     1  0.0000000  0.6508444  3
    174    178    190    196     1  0.0000000  0.6508444  3
    174    181    184    193     1  0.0000000  0.6508444  3
    175    174    178    190     1  180.0000771  2.0083200  2
    175    174    178    190     1  0.0000000  1.2552000  3
    175    174    181    184     1  180.0000771  2.0083200  2
    175    174    181    184     1  0.0000000  1.2552000  3
    175    187    199    463     1  0.0000000  0.6508444  3
    178    174    175    187     1  180.0000771  2.0083200  2
    178    174    175    187     1  0.0000000  1.2552000  3
    178    174    181    184     1  180.0000771  2.0083200  2
    178    174    181    184     1  0.0000000  1.2552000  3
    178    190    196    434     1  0.0000000  0.6508444  3
    181    174    175    187     1  180.0000771  2.0083200  2
    181    174    175    187     1  0.0000000  1.2552000  3
    181    174    178    190     1  180.0000771  2.0083200  2
    181    174    178    190     1  0.0000000  1.2552000  3
    181    184    193    202     1  0.0000000  0.6508444  3
    187    199    463    454     1  180.0000771  0.4184000  2
    187    199    463    454     1  0.0000000  1.6024720  3
    190    196    434    425     1  180.0000771  0.4184000  2
    190    196    434    425     1  0.0000000  1.6024720  3
    196    434    425    416     1  180.0000771  0.4184000  2
    196    434    425    416     1  0.0000000  1.6024720  3
    199    463    454    445     1  180.0000771  0.4184000  2
    199    463    454    445     1  0.0000000  1.6024720  3
    203    204    216    228     1  0.0000000  0.6508444  3
    203    207    219    225     1  0.0000000  0.6508444  3
    203    210    213    222     1  0.0000000  0.6508444  3
    204    203    207    219     1  180.0000771  2.0083200  2
    204    203    207    219     1  0.0000000  1.2552000  3
    204    203    210    213     1  180.0000771  2.0083200  2
    204    203    210    213     1  0.0000000  1.2552000  3
    204    216    228    521     1  0.0000000  0.6508444  3
    207    203    204    216     1  180.0000771  2.0083200  2
    207    203    204    216     1  0.0000000  1.2552000  3
    207    203    210    213     1  180.0000771  2.0083200  2
    207    203    210    213     1  0.0000000  1.2552000  3
    207    219    225    492     1  0.0000000  0.6508444  3
    210    203    204    216     1  180.0000771  2.0083200  2
    210    203    204    216     1  0.0000000  1.2552000  3
    210    203    207    219     1  180.0000771  2.0083200  2
    210    203    207    219     1  0.0000000  1.2552000  3
    210    213    222    231     1  0.0000000  0.6508444  3
    216    228    521    512     1  180.0000771  0.4184000  2
    216    228    521    512     1  0.0000000  1.6024720  3
    219    225    492    483     1  180.0000771  0.4184000  2
    219    225    492    483     1  0.0000000  1.6024720  3
    225    492    483    474     1  180.0000771  0.4184000  2
    225    492    483    474     1  0.0000000  1.6024720  3
    228    521    512    503     1  180.0000771  0.4184000  2
    228    521    512    503     1  0.0000000  1.6024720  3
    232    233    245    257     1  0.0000000  0.6508444  3
    232    236    248    254     1  0.0000000  0.6508444  3
    232    239    242    251     1  0.0000000  0.6508444  3
    233    232    236    248     1  180.0000771  2.0083200  2
    233    232    236    248     1  0.0000000  1.2552000  3
    233    232    239    242     1  180.0000771  2.0083200  2
    233    232    239    242     1  0.0000000  1.2552000  3
    233    245    257    579     1  0.0000000  0.6508444  3
    236    232    233    245     1  180.0000771  2.0083200  2
    236    232    233    245     1  0.0000000  1.2552000  3
    236    232    239    242     1  180.0000771  2.0083200  2
    236    232    239    242     1  0.0000000  1.2552000  3
    236    248    254    550     1  0.0000000  0.6508444  3
    239    232    233    245     1  180.0000771  2.0083200  2
    239    232    233    245     1  0.0000000  1.2552000  3
    239    232    236    248     1  180.0000771  2.0083200  2
    239    232    236    248     1  0.0000000  1.2552000  3
    239    242    251    260     1  0.0000000  0.6508444  3
    245    257    579    570     1  180.0000771  0.4184000  2
    245    257    579    570     1  0.0000000  1.6024720  3
    248    254    550    541     1  180.0000771  0.4184000  2
    248    254    550    541     1  0.0000000  1.6024720  3
    254    550    541    532     1  180.0000771  0.4184000  2
    254    550    541    532     1  0.0000000  1.6024720  3
    257    579    570    561     1  180.0000771  0.4184000  2
    257    579    570    561     1  0.0000000  1.6024720  3
    261    262    274    286     1  0.0000000  0.6508444  3
    261    265    277    283     1  0.0000000  0.6508444  3
    261    268    271    280     1  0.0000000  0.6508444  3
    262    261    265    277     1  180.0000771  2.0083200  2
    262    261    265    277     1  0.0000000  1.2552000  3
    262    261    268    271     1  180.0000771  2.0083200  2
    262    261    268    271     1  0.0000000  1.2552000  3
    262    274    286    637     1  0.0000000  0.6508444  3
    265    261    262    274     1  180.0000771  2.0083200  2
    265    261    262    274     1  0.0000000  1.2552000  3
    265    261    268    271     1  180.0000771  2.0083200  2
    265    261    268    271     1  0.0000000  1.2552000  3
    265    277    283    608     1  0.0000000  0.6508444  3
    268    261    262    274     1  180.0000771  2.0083200  2
    268    261    262    274     1  0.0000000  1.2552000  3
    268    261    265    277     1  180.0000771  2.0083200  2
    268    261    265    277     1  0.0000000  1.2552000  3
    268    271    280    289     1  0.0000000  0.6508444  3
    274    286    637    628     1  180.0000771  0.4184000  2
    274    286    637    628     1  0.0000000  1.6024720  3
    277    283    608    599     1  180.0000771  0.4184000  2
    277    283    608    599     1  0.0000000  1.6024720  3
    283    608    599    590     1  180.0000771  0.4184000  2
    283    608    599    590     1  0.0000000  1.6024720  3
    286    637    628    619     1  180.0000771  0.4184000  2
    286    637    628    619     1  0.0000000  1.6024720  3
    290    291    303    315     1  0.0000000  0.6508444  3
    290    294    306    312     1  0.0000000  0.6508444  3
    290    297    300    309     1  0.0000000  0.6508444  3
    291    290    294    306     1  180.0000771  2.0083200  2
    291    290    294    306     1  0.0000000  1.2552000  3
    291    290    297    300     1  180.0000771  2.0083200  2
    291    290    297    300     1  0.0000000  1.2552000  3
    291    303    315    695     1  0.0000000  0.6508444  3
    294    290    291    303     1  180.0000771  2.0083200  2
    294    290    291    303     1  0.0000000  1.2552000  3
    294    290    297    300     1  180.0000771  2.0083200  2
    294    290    297    300     1  0.0000000  1.2552000  3
    294    306    312    666     1  0.0000000  0.6508444  3
    297    290    291    303     1  180.0000771  2.0083200  2
    297    290    291    303     1  0.0000000  1.2552000  3
    297    290    294    306     1  180.0000771  2.0083200  2
    297    290    294    306     1  0.0000000  1.2552000  3
    297    300    309    318     1  0.0000000  0.6508444  3
    303    315    695    686     1  180.0000771  0.4184000  2
    303    315    695    686     1  0.0000000  1.6024720  3
    306    312    666    657     1  180.0000771  0.4184000  2
    306    312    666    657     1  0.0000000  1.6024720  3
    312    666    657    648     1  180.0000771  0.4184000  2
    312    666    657    648     1  0.0000000  1.6024720  3
    315    695    686    677     1  180.0000771  0.4184000  2
    315    695    686    677     1  0.0000000  1.6024720  3
    319    320    332    344     1  0.0000000  0.6508444  3
    319    323    335    341     1  0.0000000  0.6508444  3
    319    326    329    338     1  0.0000000  0.6508444  3
    320    319    323    335     1  180.0000771  2.0083200  2
    320    319    323    335     1  0.0000000  1.2552000  3
    320    319    326    329     1  180.0000771  2.0083200  2
    320    319    326    329     1  0.0000000  1.2552000  3
    320    332    344    753     1  0.0000000  0.6508444  3
    323    319    320    332     1  180.0000771  2.0083200  2
    323    319    320    332     1  0.0000000  1.2552000  3
    323    319    326    329     1  180.0000771  2.0083200  2
    323    319    326    329     1  0.0000000  1.2552000  3
    323    335    341    724     1  0.0000000  0.6508444  3
    326    319    320    332     1  180.0000771  2.0083200  2
    326    319    320    332     1  0.0000000  1.2552000  3
    326    319    323    335     1  180.0000771  2.0083200  2
    326    319    323    335     1  0.0000000  1.2552000  3
    326    329    338    347     1  0.0000000  0.6508444  3
    332    344    753    744     1  180.0000771  0.4184000  2
    332    344    753    744     1  0.0000000  1.6024720  3
    335    341    724    715     1  180.0000771  0.4184000  2
    335    341    724    715     1  0.0000000  1.6024720  3
    341    724    715    706     1  180.0000771  0.4184000  2
    341    724    715    706     1  0.0000000  1.6024720  3
    344    753    744    735     1  180.0000771  0.4184000  2
    344    753    744    735     1  0.0000000  1.6024720  3
    348    349    361    373     1  0.0000000  0.6508444  3
    348    352    364    370     1  0.0000000  0.6508444  3
    348    355    358    367     1  0.0000000  0.6508444  3
    349    348    352    364     1  180.0000771  2.0083200  2
    349    348    352    364     1  0.0000000  1.2552000  3
    349    348    355    358     1  180.0000771  2.0083200  2
    349    348    355    358     1  0.0000000  1.2552000  3
    349    361    373    811     1  0.0000000  0.6508444  3
    352    348    349    361     1  180.0000771  2.0083200  2
    352    348    349    361     1  0.0000000  1.2552000  3
    352    348    355    358     1  180.0000771  2.0083200  2
    352    348    355    358     1  0.0000000  1.2552000  3
    352    364    370    782     1  0.0000000  0.6508444  3
    355    348    349    361     1  180.0000771  2.0083200  2
    355    348    349    361     1  0.0000000  1.2552000  3
    355    348    352    364     1  180.0000771  2.0083200  2
    355    348    352    364     1  0.0000000  1.2552000  3
    355    358    367    376     1  0.0000000  0.6508444  3
    361    373    811    802     1  180.0000771  0.4184000  2
    361    373    811    802     1  0.0000000  1.6024720  3
    364    370    782    773     1  180.0000771  0.4184000  2
    364    370    782    773     1  0.0000000  1.6024720  3
    370    782    773    764     1  180.0000771  0.4184000  2
    370    782    773    764     1  0.0000000  1.6024720  3
    373    811    802    793     1  180.0000771  0.4184000  2
    373    811    802    793     1  0.0000000  1.6024720  3
    377    378    390    402     1  0.0000000  0.6508444  3
    377    381    393    399     1  0.0000000  0.6508444  3
    377    384    387    396     1  0.0000000  0.6508444  3
    378    377    381    393     1  180.0000771  2.0083200  2
    378    377    381    393     1  0.0000000  1.2552000  3
    378    377    384    387     1  180.0000771  2.0083200  2
    378    377    384    387     1  0.0000000  1.2552000  3
    378    390    402    869     1  0.0000000  0.6508444  3
    381    377    378    390     1  180.0000771  2.0083200  2
    381    377    378    390     1  0.0000000  1.2552000  3
    381    377    384    387     1  180.0000771  2.0083200  2
    381    377    384    387     1  0.0000000  1.2552000  3
    381    393    399    840     1  0.0000000  0.6508444  3
    384    377    378    390     1  180.0000771  2.0083200  2
    384    377    378    390     1  0.0000000  1.2552000  3
    384    377    381    393     1  180.0000771  2.0083200  2
    384    377    381    393     1  0.0000000  1.2552000  3
    384    387    396    405     1  0.0000000  0.6508444  3
    390    402    869    860     1  180.0000771  0.4184000  2
    390    402    869    860     1  0.0000000  1.6024720  3
    393    399    840    831     1  180.0000771  0.4184000  2
    393    399    840    831     1  0.0000000  1.6024720  3
    399    840    831    822     1  180.0000771  0.4184000  2
    399    840    831    822     1  0.0000000  1.6024720  3
    402    869    860    851     1  180.0000771  0.4184000  2
    402    869    860    851     1  0.0000000  1.6024720  3
    406    407    419    431     1  0.0000000  0.6508444  3
    406    410    422    428     1  0.0000000  0.6508444  3
    406    413    416    425     1  0.0000000  0.6508444  3
    407    406    410    422     1  180.0000771  2.0083200  2
    407    406    410    422     1  0.0000000  1.2552000  3
    407    406    413    416     1  180.0000771  2.0083200  2
    407    406    413    416     1  0.0000000  1.2552000  3
    407    419    431    927     1  0.0000000  0.6508444  3
    410    406    407    419     1  180.0000771  2.0083200  2
    410    406    407    419     1  0.0000000  1.2552000  3
    410    406    413    416     1  180.0000771  2.0083200  2
    410    406    413    416     1  0.0000000  1.2552000  3
    410    422    428    898     1  0.0000000  0.6508444  3
    413    406    407    419     1  180.0000771  2.0083200  2
    413    406    407    419     1  0.0000000  1.2552000  3
    413    406    410    422     1  180.0000771  2.0083200  2
    413    406    410    422     1  0.0000000  1.2552000  3
    413    416    425    434     1  0.0000000  0.6508444  3
    419    431    927    918     1  180.0000771  0.4184000  2
    419    431    927    918     1  0.0000000  1.6024720  3
    422    428    898    889     1  180.0000771  0.4184000  2
    422    428    898    889     1  0.0000000  1.6024720  3
    428    898    889    880     1  180.0000771  0.4184000  2
    428    898    889    880     1  0.0000000  1.6024720  3
    431    927    918    909     1  180.0000771  0.4184000  2
    431    927    918    909     1  0.0000000  1.6024720  3
    435    436    448    460     1  0.0000000  0.6508444  3
    435    439    451    457     1  0.0000000  0.6508444  3
    435    442    445    454     1  0.0000000  0.6508444  3
    436    435    439    451     1  180.0000771  2.0083200  2
    436    435    439    451     1  0.0000000  1.2552000  3
    436    435    442    445     1  180.0000771  2.0083200  2
    436    435    442    445     1  0.0000000  1.2552000  3
    436    448    460    985     1  0.0000000  0.6508444  3
    439    435    436    448     1  180.0000771  2.0083200  2
    439    435    436    448     1  0.0000000  1.2552000  3
    439    435    442    445     1  180.0000771  2.0083200  2
    439    435    442    445     1  0.0000000  1.2552000  3
    439    451    457    956     1  0.0000000  0.6508444  3
    442    435    436    448     1  180.0000771  2.0083200  2
    442    435    436    448     1  0.0000000  1.2552000  3
    442    435    439    451     1  180.0000771  2.0083200  2
    442    435    439    451     1  0.0000000  1.2552000  3
    442    445    454    463     1  0.0000000  0.6508444  3
    448    460    985    976     1  180.0000771  0.4184000  2
    448    460    985    976     1  0.0000000  1.6024720  3
    451    457    956    947     1  180.0000771  0.4184000  2
    451    457    956    947     1  0.0000000  1.6024720  3
    457    956    947    938     1  180.0000771  0.4184000  2
    457    956    947    938     1  0.0000000  1.6024720  3
    460    985    976    967     1  180.0000771  0.4184000  2
    460    985    976    967     1  0.0000000  1.6024720  3
    464    465    477    489     1  0.0000000  0.6508444  3
    464    468    480    486     1  0.0000000  0.6508444  3
    464    471    474    483     1  0.0000000  0.6508444  3
    465    464    468    480     1  180.0000771  2.0083200  2
    465    464    468    480     1  0.0000000  1.2552000  3
    465    464    471    474     1  180.0000771  2.0083200  2
    465    464    471    474     1  0.0000000  1.2552000  3
    465    477    489   1043     1  0.0000000  0.6508444  3
    468    464    465    477     1  180.0000771  2.0083200  2
    468    464    465    477     1  0.0000000  1.2552000  3
    468    464    471    474     1  180.0000771  2.0083200  2
    468    464    471    474     1  0.0000000  1.2552000  3
    468    480    486   1014     1  0.0000000  0.6508444  3
    471    464    465    477     1  180.0000771  2.0083200  2
    471    464    465    477     1  0.0000000  1.2552000  3
    471    464    468    480     1  180.0000771  2.0083200  2
    471    464    468    480     1  0.0000000  1.2552000  3
    471    474    483    492     1  0.0000000  0.6508444  3
    477    489   1043   1034     1  180.0000771  0.4184000  2
    477    489   1043   1034     1  0.0000000  1.6024720  3
    480    486   1014   1005     1  180.0000771  0.4184000  2
    480    486   1014   1005     1  0.0000000  1.6024720  3
    486   1014   1005    996     1  180.0000771  0.4184000  2
    486   1014   1005    996     1  0.0000000  1.6024720  3
    489   1043   1034   1025     1  180.0000771  0.4184000  2
    489   1043   1034   1025     1  0.0000000  1.6024720  3
    493    494    506    518     1  0.0000000  0.6508444  3
    493    497    509    515     1  0.0000000  0.6508444  3
    493    500    503    512     1  0.0000000  0.6508444  3
    494    493    497    509     1  180.0000771  2.0083200  2
    494    493    497    509     1  0.0000000  1.2552000  3
    494    493    500    503     1  180.0000771  2.0083200  2
    494    493    500    503     1  0.0000000  1.2552000  3
    494    506    518   1101     1  0.0000000  0.6508444  3
    497    493    494    506     1  180.0000771  2.0083200  2
    497    493    494    506     1  0.0000000  1.2552000  3
    497    493    500    503     1  180.0000771  2.0083200  2
    497    493    500    503     1  0.0000000  1.2552000  3
    497    509    515   1072     1  0.0000000  0.6508444  3
    500    493    494    506     1  180.0000771  2.0083200  2
    500    493    494    506     1  0.0000000  1.2552000  3
    500    493    497    509     1  180.0000771  2.0083200  2
    500    493    497    509     1  0.0000000  1.2552000  3
    500    503    512    521     1  0.0000000  0.6508444  3
    506    518   1101   1092     1  180.0000771  0.4184000  2
    506    518   1101   1092     1  0.0000000  1.6024720  3
    509    515   1072   1063     1  180.0000771  0.4184000  2
    509    515   1072   1063     1  0.0000000  1.6024720  3
    515   1072   1063   1054     1  180.0000771  0.4184000  2
    515   1072   1063   1054     1  0.0000000  1.6024720  3
    518   1101   1092   1083     1  180.0000771  0.4184000  2
    518   1101   1092   1083     1  0.0000000  1.6024720  3
    522    523    535    547     1  0.0000000  0.6508444  3
    522    526    538    544     1  0.0000000  0.6508444  3
    522    529    532    541     1  0.0000000  0.6508444  3
    523    522    526    538     1  180.0000771  2.0083200  2
    523    522    526    538     1  0.0000000  1.2552000  3
    523    522    529    532     1  180.0000771  2.0083200  2
    523    522    529    532     1  0.0000000  1.2552000  3
    523    535    547   1159     1  0.0000000  0.6508444  3
    526    522    523    535     1  180.0000771  2.0083200  2
    526    522    523    535     1  0.0000000  1.2552000  3
    526    522    529    532     1  180.0000771  2.0083200  2
    526    522    529    532     1  0.0000000  1.2552000  3
    526    538    544   1130     1  0.0000000  0.6508444  3
    529    522    523    535     1  180.0000771  2.0083200  2
    529    522    523    535     1  0.0000000  1.2552000  3
    529    522    526    538     1  180.0000771  2.0083200  2
    529    522    526    538     1  0.0000000  1.2552000  3
    529    532    541    550     1  0.0000000  0.6508444  3
    535    547   1159   1150     1  180.0000771  0.4184000  2
    535    547   1159   1150     1  0.0000000  1.6024720  3
    538    544   1130   1121     1  180.0000771  0.4184000  2
    538    544   1130   1121     1  0.0000000  1.6024720  3
    544   1130   1121   1112     1  180.0000771  0.4184000  2
    544   1130   1121   1112     1  0.0000000  1.6024720  3
    547   1159   1150   1141     1  180.0000771  0.4184000  2
    547   1159   1150   1141     1  0.0000000  1.6024720  3
    551    552    564    576     1  0.0000000  0.6508444  3
    551    555    567    573     1  0.0000000  0.6508444  3
    551    558    561    570     1  0.0000000  0.6508444  3
    552    551    555    567     1  180.0000771  2.0083200  2
    552    551    555    567     1  0.0000000  1.2552000  3
    552    551    558    561     1  180.0000771  2.0083200  2
    552    551    558    561     1  0.0000000  1.2552000  3
    552    564    576   1217     1  0.0000000  0.6508444  3
    555    551    552    564     1  180.0000771  2.0083200  2
    555    551    552    564     1  0.0000000  1.2552000  3
    555    551    558    561     1  180.0000771  2.0083200  2
    555    551    558    561     1  0.0000000  1.2552000  3
    555    567    573   1188     1  0.0000000  0.6508444  3
    558    551    552    564     1  180.0000771  2.0083200  2
    558    551    552    564     1  0.0000000  1.2552000  3
    558    551    555    567     1  180.0000771  2.0083200  2
    558    551    555    567     1  0.0000000  1.2552000  3
    558    561    570    579     1  0.0000000  0.6508444  3
    564    576   1217   1208     1  180.0000771  0.4184000  2
    564    576   1217   1208     1  0.0000000  1.6024720  3
    567    573   1188   1179     1  180.0000771  0.4184000  2
    567    573   1188   1179     1  0.0000000  1.6024720  3
    573   1188   1179   1170     1  180.0000771  0.4184000  2
    573   1188   1179   1170     1  0.0000000  1.6024720  3
    576   1217   1208   1199     1  180.0000771  0.4184000  2
    576   1217   1208   1199     1  0.0000000  1.6024720  3
    580    581    593    605     1  0.0000000  0.6508444  3
    580    584    596    602     1  0.0000000  0.6508444  3
    580    587    590    599     1  0.0000000  0.6508444  3
    581    580    584    596     1  180.0000771  2.0083200  2
    581    580    584    596     1  0.0000000  1.2552000  3
    581    580    587    590     1  180.0000771  2.0083200  2
    581    580    587    590     1  0.0000000  1.2552000  3
    581    593    605   1275     1  0.0000000  0.6508444  3
    584    580    581    593     1  180.0000771  2.0083200  2
    584    580    581    593     1  0.0000000  1.2552000  3
    584    580    587    590     1  180.0000771  2.0083200  2
    584    580    587    590     1  0.0000000  1.2552000  3
    584    596    602   1246     1  0.0000000  0.6508444  3
    587    580    581    593     1  180.0000771  2.0083200  2
    587    580    581    593     1  0.0000000  1.2552000  3
    587    580    584    596     1  180.0000771  2.0083200  2
    587    580    584    596     1  0.0000000  1.2552000  3
    587    590    599    608     1  0.0000000  0.6508444  3
    593    605   1275   1266     1  180.0000771  0.4184000  2
    593    605   1275   1266     1  0.0000000  1.6024720  3
    596    602   1246   1237     1  180.0000771  0.4184000  2
    596    602   1246   1237     1  0.0000000  1.6024720  3
    602   1246   1237   1228     1  180.0000771  0.4184000  2
    602   1246   1237   1228     1  0.0000000  1.6024720  3
    605   1275   1266   1257     1  180.0000771  0.4184000  2
    605   1275   1266   1257     1  0.0000000  1.6024720  3
    609    610    622    634     1  0.0000000  0.6508444  3
    609    613    625    631     1  0.0000000  0.6508444  3
    609    616    619    628     1  0.0000000  0.6508444  3
    610    609    613    625     1  180.0000771  2.0083200  2
    610    609    613    625     1  0.0000000  1.2552000  3
    610    609    616    619     1  180.0000771  2.0083200  2
    610    609    616    619     1  0.0000000  1.2552000  3
    610    622    634   1333     1  0.0000000  0.6508444  3
    613    609    610    622     1  180.0000771  2.0083200  2
    613    609    610    622     1  0.0000000  1.2552000  3
    613    609    616    619     1  180.0000771  2.0083200  2
    613    609    616    619     1  0.0000000  1.2552000  3
    613    625    631   1304     1  0.0000000  0.6508444  3
    616    609    610    622     1  180.0000771  2.0083200  2
    616    609    610    622     1  0.0000000  1.2552000  3
    616    609    613    625     1  180.0000771  2.0083200  2
    616    609    613    625     1  0.0000000  1.2552000  3
    616    619    628    637     1  0.0000000  0.6508444  3
    622    634   1333   1324     1  180.0000771  0.4184000  2
    622    634   1333   1324     1  0.0000000  1.6024720  3
    625    631   1304   1295     1  180.0000771  0.4184000  2
    625    631   1304   1295     1  0.0000000  1.6024720  3
    631   1304   1295   1286     1  180.0000771  0.4184000  2
    631   1304   1295   1286     1  0.0000000  1.6024720  3
    634   1333   1324   1315     1  180.0000771  0.4184000  2
    634   1333   1324   1315     1  0.0000000  1.6024720  3
    638    639    651    663     1  0.0000000  0.6508444  3
    638    642    654    660     1  0.0000000  0.6508444  3
    638    645    648    657     1  0.0000000  0.6508444  3
    639    638    642    654     1  180.0000771  2.0083200  2
    639    638    642    654     1  0.0000000  1.2552000  3
    639    638    645    648     1  180.0000771  2.0083200  2
    639    638    645    648     1  0.0000000  1.2552000  3
    639    651    663   1391     1  0.0000000  0.6508444  3
    642    638    639    651     1  180.0000771  2.0083200  2
    642    638    639    651     1  0.0000000  1.2552000  3
    642    638    645    648     1  180.0000771  2.0083200  2
    642    638    645    648     1  0.0000000  1.2552000  3
    642    654    660   1362     1  0.0000000  0.6508444  3
    645    638    639    651     1  180.0000771  2.0083200  2
    645    638    639    651     1  0.0000000  1.2552000  3
    645    638    642    654     1  180.0000771  2.0083200  2
    645    638    642    654     1  0.0000000  1.2552000  3
    645    648    657    666     1  0.0000000  0.6508444  3
    651    663   1391   1382     1  180.0000771  0.4184000  2
    651    663   1391   1382     1  0.0000000  1.6024720  3
    654    660   1362   1353     1  180.0000771  0.4184000  2
    654    660   1362   1353     1  0.0000000  1.6024720  3
    660   1362   1353   1344     1  180.0000771  0.4184000  2
    660   1362   1353   1344     1  0.0000000  1.6024720  3
    663   1391   1382   1373     1  180.0000771  0.4184000  2
    663   1391   1382   1373     1  0.0000000  1.6024720  3
    667    668    680    692     1  0.0000000  0.6508444  3
    667    671    683    689     1  0.0000000  0.6508444  3
    667    674    677    686     1  0.0000000  0.6508444  3
    668    667    671    683     1  180.0000771  2.0083200  2
    668    667    671    683     1  0.0000000  1.2552000  3
    668    667    674    677     1  180.0000771  2.0083200  2
    668    667    674    677     1  0.0000000  1.2552000  3
    668    680    692   1449     1  0.0000000  0.6508444  3
    671    667    668    680     1  180.0000771  2.0083200  2
    671    667    668    680     1  0.0000000  1.2552000  3
    671    667    674    677     1  180.0000771  2.0083200  2
    671    667    674    677     1  0.0000000  1.2552000  3
    671    683    689   1420     1  0.0000000  0.6508444  3
    674    667    668    680     1  180.0000771  2.0083200  2
    674    667    668    680     1  0.0000000  1.2552000  3
    674    667    671    683     1  180.0000771  2.0083200  2
    674    667    671    683     1  0.0000000  1.2552000  3
    674    677    686    695     1  0.0000000  0.6508444  3
    680    692   1449   1440     1  180.0000771  0.4184000  2
    680    692   1449   1440     1  0.0000000  1.6024720  3
    683    689   1420   1411     1  180.0000771  0.4184000  2
    683    689   1420   1411     1  0.0000000  1.6024720  3
    689   1420   1411   1402     1  180.0000771  0.4184000  2
    689   1420   1411   1402     1  0.0000000  1.6024720  3
    692   1449   1440   1431     1  180.0000771  0.4184000  2
    692   1449   1440   1431     1  0.0000000  1.6024720  3
    696    697    709    721     1  0.0000000  0.6508444  3
    696    700    712    718     1  0.0000000  0.6508444  3
    696    703    706    715     1  0.0000000  0.6508444  3
    697    696    700    712     1  180.0000771  2.0083200  2
    697    696    700    712     1  0.0000000  1.2552000  3
    697    696    703    706     1  180.0000771  2.0083200  2
    697    696    703    706     1  0.0000000  1.2552000  3
    697    709    721   1507     1  0.0000000  0.6508444  3
    700    696    697    709     1  180.0000771  2.0083200  2
    700    696    697    709     1  0.0000000  1.2552000  3
    700    696    703    706     1  180.0000771  2.0083200  2
    700    696    703    706     1  0.0000000  1.2552000  3
    700    712    718   1478     1  0.0000000  0.6508444  3
    703    696    697    709     1  180.0000771  2.0083200  2
    703    696    697    709     1  0.0000000  1.2552000  3
    703    696    700    712     1  180.0000771  2.0083200  2
    703    696    700    712     1  0.0000000  1.2552000  3
    703    706    715    724     1  0.0000000  0.6508444  3
    709    721   1507   1498     1  180.0000771  0.4184000  2
    709    721   1507   1498     1  0.0000000  1.6024720  3
    712    718   1478   1469     1  180.0000771  0.4184000  2
    712    718   1478   1469     1  0.0000000  1.6024720  3
    718   1478   1469   1460     1  180.0000771  0.4184000  2
    718   1478   1469   1460     1  0.0000000  1.6024720  3
    721   1507   1498   1489     1  180.0000771  0.4184000  2
    721   1507   1498   1489     1  0.0000000  1.6024720  3
    725    726    738    750     1  0.0000000  0.6508444  3
    725    729    741    747     1  0.0000000  0.6508444  3
    725    732    735    744     1  0.0000000  0.6508444  3
    726    725    729    741     1  180.0000771  2.0083200  2
    726    725    729    741     1  0.0000000  1.2552000  3
    726    725    732    735     1  180.0000771  2.0083200  2
    726    725    732    735     1  0.0000000  1.2552000  3
    726    738    750   1565     1  0.0000000  0.6508444  3
    729    725    726    738     1  180.0000771  2.0083200  2
    729    725    726    738     1  0.0000000  1.2552000  3
    729    725    732    735     1  180.0000771  2.0083200  2
    729    725    732    735     1  0.0000000  1.2552000  3
    729    741    747   1536     1  0.0000000  0.6508444  3
    732    725    726    738     1  180.0000771  2.0083200  2
    732    725    726    738     1  0.0000000  1.2552000  3
    732    725    729    741     1  180.0000771  2.0083200  2
    732    725    729    741     1  0.0000000  1.2552000  3
    732    735    744    753     1  0.0000000  0.6508444  3
    738    750   1565   1556     1  180.0000771  0.4184000  2
    738    750   1565   1556     1  0.0000000  1.6024720  3
    741    747   1536   1527     1  180.0000771  0.4184000  2
    741    747   1536   1527     1  0.0000000  1.6024720  3
    747   1536   1527   1518     1  180.0000771  0.4184000  2
    747   1536   1527   1518     1  0.0000000  1.6024720  3
    750   1565   1556   1547     1  180.0000771  0.4184000  2
    750   1565   1556   1547     1  0.0000000  1.6024720  3
    754    755    767    779     1  0.0000000  0.6508444  3
    754    758    770    776     1  0.0000000  0.6508444  3
    754    761    764    773     1  0.0000000  0.6508444  3
    755    754    758    770     1  180.0000771  2.0083200  2
    755    754    758    770     1  0.0000000  1.2552000  3
    755    754    761    764     1  180.0000771  2.0083200  2
    755    754    761    764     1  0.0000000  1.2552000  3
    755    767    779   1623     1  0.0000000  0.6508444  3
    758    754    755    767     1  180.0000771  2.0083200  2
    758    754    755    767     1  0.0000000  1.2552000  3
    758    754    761    764     1  180.0000771  2.0083200  2
    758    754    761    764     1  0.0000000  1.2552000  3
    758    770    776   1594     1  0.0000000  0.6508444  3
    761    754    755    767     1  180.0000771  2.0083200  2
    761    754    755    767     1  0.0000000  1.2552000  3
    761    754    758    770     1  180.0000771  2.0083200  2
    761    754    758    770     1  0.0000000  1.2552000  3
    761    764    773    782     1  0.0000000  0.6508444  3
    767    779   1623   1614     1  180.0000771  0.4184000  2
    767    779   1623   1614     1  0.0000000  1.6024720  3
    770    776   1594   1585     1  180.0000771  0.4184000  2
    770    776   1594   1585     1  0.0000000  1.6024720  3
    776   1594   1585   1576     1  180.0000771  0.4184000  2
    776   1594   1585   1576     1  0.0000000  1.6024720  3
    779   1623   1614   1605     1  180.0000771  0.4184000  2
    779   1623   1614   1605     1  0.0000000  1.6024720  3
    783    784    796    808     1  0.0000000  0.6508444  3
    783    787    799    805     1  0.0000000  0.6508444  3
    783    790    793    802     1  0.0000000  0.6508444  3
    784    783    787    799     1  180.0000771  2.0083200  2
    784    783    787    799     1  0.0000000  1.2552000  3
    784    783    790    793     1  180.0000771  2.0083200  2
    784    783    790    793     1  0.0000000  1.2552000  3
    784    796    808   1681     1  0.0000000  0.6508444  3
    787    783    784    796     1  180.0000771  2.0083200  2
    787    783    784    796     1  0.0000000  1.2552000  3
    787    783    790    793     1  180.0000771  2.0083200  2
    787    783    790    793     1  0.0000000  1.2552000  3
    787    799    805   1652     1  0.0000000  0.6508444  3
    790    783    784    796     1  180.0000771  2.0083200  2
    790    783    784    796     1  0.0000000  1.2552000  3
    790    783    787    799     1  180.0000771  2.0083200  2
    790    783    787    799     1  0.0000000  1.2552000  3
    790    793    802    811     1  0.0000000  0.6508444  3
    796    808   1681   1672     1  180.0000771  0.4184000  2
    796    808   1681   1672     1  0.0000000  1.6024720  3
    799    805   1652   1643     1  180.0000771  0.4184000  2
    799    805   1652   1643     1  0.0000000  1.6024720  3
    805   1652   1643   1634     1  180.0000771  0.4184000  2
    805   1652   1643   1634     1  0.0000000  1.6024720  3
    808   1681   1672   1663     1  180.0000771  0.4184000  2
    808   1681   1672   1663     1  0.0000000  1.6024720  3
    812    813    825    837     1  0.0000000  0.6508444  3
    812    816    828    834     1  0.0000000  0.6508444  3
    812    819    822    831     1  0.0000000  0.6508444  3
    813    812    816    828     1  180.0000771  2.0083200  2
    813    812    816    828     1  0.0000000  1.2552000  3
    813    812    819    822     1  180.0000771  2.0083200  2
    813    812    819    822     1  0.0000000  1.2552000  3
    813    825    837   1739     1  0.0000000  0.6508444  3
    816    812    813    825     1  180.0000771  2.0083200  2
    816    812    813    825     1  0.0000000  1.2552000  3
    816    812    819    822     1  180.0000771  2.0083200  2
    816    812    819    822     1  0.0000000  1.2552000  3
    816    828    834   1710     1  0.0000000  0.6508444  3
    819    812    813    825     1  180.0000771  2.0083200  2
    819    812    813    825     1  0.0000000  1.2552000  3
    819    812    816    828     1  180.0000771  2.0083200  2
    819    812    816    828     1  0.0000000  1.2552000  3
    819    822    831    840     1  0.0000000  0.6508444  3
    825    837   1739   1730     1  180.0000771  0.4184000  2
    825    837   1739   1730     1  0.0000000  1.6024720  3
    828    834   1710   1701     1  180.0000771  0.4184000  2
    828    834   1710   1701     1  0.0000000  1.6024720  3
    834   1710   1701   1692     1  180.0000771  0.4184000  2
    834   1710   1701   1692     1  0.0000000  1.6024720  3
    837   1739   1730   1721     1  180.0000771  0.4184000  2
    837   1739   1730   1721     1  0.0000000  1.6024720  3
    841    842    854    866     1  0.0000000  0.6508444  3
    841    845    857    863     1  0.0000000  0.6508444  3
    841    848    851    860     1  0.0000000  0.6508444  3
    842    841    845    857     1  180.0000771  2.0083200  2
    842    841    845    857     1  0.0000000  1.2552000  3
    842    841    848    851     1  180.0000771  2.0083200  2
    842    841    848    851     1  0.0000000  1.2552000  3
    842    854    866   1797     1  0.0000000  0.6508444  3
    845    841    842    854     1  180.0000771  2.0083200  2
    845    841    842    854     1  0.0000000  1.2552000  3
    845    841    848    851     1  180.0000771  2.0083200  2
    845    841    848    851     1  0.0000000  1.2552000  3
    845    857    863   1768     1  0.0000000  0.6508444  3
    848    841    842    854     1  180.0000771  2.0083200  2
    848    841    842    854     1  0.0000000  1.2552000  3
    848    841    845    857     1  180.0000771  2.0083200  2
    848    841    845    857     1  0.0000000  1.2552000  3
    848    851    860    869     1  0.0000000  0.6508444  3
    854    866   1797   1788     1  180.0000771  0.4184000  2
    854    866   1797   1788     1  0.0000000  1.6024720  3
    857    863   1768   1759     1  180.0000771  0.4184000  2
    857    863   1768   1759     1  0.0000000  1.6024720  3
    863   1768   1759   1750     1  180.0000771  0.4184000  2
    863   1768   1759   1750     1  0.0000000  1.6024720  3
    866   1797   1788   1779     1  180.0000771  0.4184000  2
    866   1797   1788   1779     1  0.0000000  1.6024720  3
    870    871    883    895     1  0.0000000  0.6508444  3
    870    874    886    892     1  0.0000000  0.6508444  3
    870    877    880    889     1  0.0000000  0.6508444  3
    871    870    874    886     1  180.0000771  2.0083200  2
    871    870    874    886     1  0.0000000  1.2552000  3
    871    870    877    880     1  180.0000771  2.0083200  2
    871    870    877    880     1  0.0000000  1.2552000  3
    871    883    895   1859     1  0.0000000  0.6508444  3
    874    870    871    883     1  180.0000771  2.0083200  2
    874    870    871    883     1  0.0000000  1.2552000  3
    874    870    877    880     1  180.0000771  2.0083200  2
    874    870    877    880     1  0.0000000  1.2552000  3
    874    886    892   1828     1  0.0000000  0.6508444  3
    877    870    871    883     1  180.0000771  2.0083200  2
    877    870    871    883     1  0.0000000  1.2552000  3
    877    870    874    886     1  180.0000771  2.0083200  2
    877    870    874    886     1  0.0000000  1.2552000  3
    877    880    889    898     1  0.0000000  0.6508444  3
    883    895   1859   1829     1  180.0000771  0.4184000  2
    883    895   1859   1829     1  0.0000000  1.6024720  3
    886    892   1828   1798     1  180.0000771  0.4184000  2
    886    892   1828   1798     1  0.0000000  1.6024720  3
    892   1828   1798   1801     1  180.0000771  0.4184000  2
    892   1828   1798   1801     1  0.0000000  1.6024720  3
    895   1859   1829   1832     1  180.0000771  0.4184000  2
    895   1859   1829   1832     1  0.0000000  1.6024720  3
    899    900    912    924     1  0.0000000  0.6508444  3
    899    903    915    921     1  0.0000000  0.6508444  3
    899    906    909    918     1  0.0000000  0.6508444  3
    900    899    903    915     1  180.0000771  2.0083200  2
    900    899    903    915     1  0.0000000  1.2552000  3
    900    899    906    909     1  180.0000771  2.0083200  2
    900    899    906    909     1  0.0000000  1.2552000  3
    900    912    924   1921     1  0.0000000  0.6508444  3
    903    899    900    912     1  180.0000771  2.0083200  2
    903    899    900    912     1  0.0000000  1.2552000  3
    903    899    906    909     1  180.0000771  2.0083200  2
    903    899    906    909     1  0.0000000  1.2552000  3
    903    915    921   1890     1  0.0000000  0.6508444  3
    906    899    900    912     1  180.0000771  2.0083200  2
    906    899    900    912     1  0.0000000  1.2552000  3
    906    899    903    915     1  180.0000771  2.0083200  2
    906    899    903    915     1  0.0000000  1.2552000  3
    906    909    918    927     1  0.0000000  0.6508444  3
    912    924   1921   1891     1  180.0000771  0.4184000  2
    912    924   1921   1891     1  0.0000000  1.6024720  3
    915    921   1890   1860     1  180.0000771  0.4184000  2
    915    921   1890   1860     1  0.0000000  1.6024720  3
    921   1890   1860   1863     1  180.0000771  0.4184000  2
    921   1890   1860   1863     1  0.0000000  1.6024720  3
    924   1921   1891   1894     1  180.0000771  0.4184000  2
    924   1921   1891   1894     1  0.0000000  1.6024720  3
    928    929    941    953     1  0.0000000  0.6508444  3
    928    932    944    950     1  0.0000000  0.6508444  3
    928    935    938    947     1  0.0000000  0.6508444  3
    929    928    932    944     1  180.0000771  2.0083200  2
    929    928    932    944     1  0.0000000  1.2552000  3
    929    928    935    938     1  180.0000771  2.0083200  2
    929    928    935    938     1  0.0000000  1.2552000  3
    929    941    953   1983     1  0.0000000  0.6508444  3
    932    928    929    941     1  180.0000771  2.0083200  2
    932    928    929    941     1  0.0000000  1.2552000  3
    932    928    935    938     1  180.0000771  2.0083200  2
    932    928    935    938     1  0.0000000  1.2552000  3
    932    944    950   1952     1  0.0000000  0.6508444  3
    935    928    929    941     1  180.0000771  2.0083200  2
    935    928    929    941     1  0.0000000  1.2552000  3
    935    928    932    944     1  180.0000771  2.0083200  2
    935    928    932    944     1  0.0000000  1.2552000  3
    935    938    947    956     1  0.0000000  0.6508444  3
    941    953   1983   1953     1  180.0000771  0.4184000  2
    941    953   1983   1953     1  0.0000000  1.6024720  3
    944    950   1952   1922     1  180.0000771  0.4184000  2
    944    950   1952   1922     1  0.0000000  1.6024720  3
    950   1952   1922   1925     1  180.0000771  0.4184000  2
    950   1952   1922   1925     1  0.0000000  1.6024720  3
    953   1983   1953   1956     1  180.0000771  0.4184000  2
    953   1983   1953   1956     1  0.0000000  1.6024720  3
    957    958    970    982     1  0.0000000  0.6508444  3
    957    961    973    979     1  0.0000000  0.6508444  3
    957    964    967    976     1  0.0000000  0.6508444  3
    958    957    961    973     1  180.0000771  2.0083200  2
    958    957    961    973     1  0.0000000  1.2552000  3
    958    957    964    967     1  180.0000771  2.0083200  2
    958    957    964    967     1  0.0000000  1.2552000  3
    958    970    982   2045     1  0.0000000  0.6508444  3
    961    957    958    970     1  180.0000771  2.0083200  2
    961    957    958    970     1  0.0000000  1.2552000  3
    961    957    964    967     1  180.0000771  2.0083200  2
    961    957    964    967     1  0.0000000  1.2552000  3
    961    973    979   2014     1  0.0000000  0.6508444  3
    964    957    958    970     1  180.0000771  2.0083200  2
    964    957    958    970     1  0.0000000  1.2552000  3
    964    957    961    973     1  180.0000771  2.0083200  2
    964    957    961    973     1  0.0000000  1.2552000  3
    964    967    976    985     1  0.0000000  0.6508444  3
    970    982   2045   2015     1  180.0000771  0.4184000  2
    970    982   2045   2015     1  0.0000000  1.6024720  3
    973    979   2014   1984     1  180.0000771  0.4184000  2
    973    979   2014   1984     1  0.0000000  1.6024720  3
    979   2014   1984   1987     1  180.0000771  0.4184000  2
    979   2014   1984   1987     1  0.0000000  1.6024720  3
    982   2045   2015   2018     1  180.0000771  0.4184000  2
    982   2045   2015   2018     1  0.0000000  1.6024720  3
    986    987    999   1011     1  0.0000000  0.6508444  3
    986    990   1002   1008     1  0.0000000  0.6508444  3
    986    993    996   1005     1  0.0000000  0.6508444  3
    987    986    990   1002     1  180.0000771  2.0083200  2
    987    986    990   1002     1  0.0000000  1.2552000  3
    987    986    993    996     1  180.0000771  2.0083200  2
    987    986    993    996     1  0.0000000  1.2552000  3
    987    999   1011   2107     1  0.0000000  0.6508444  3
    990    986    987    999     1  180.0000771  2.0083200  2
    990    986    987    999     1  0.0000000  1.2552000  3
    990    986    993    996     1  180.0000771  2.0083200  2
    990    986    993    996     1  0.0000000  1.2552000  3
    990   1002   1008   2076     1  0.0000000  0.6508444  3
    993    986    987    999     1  180.0000771  2.0083200  2
    993    986    987    999     1  0.0000000  1.2552000  3
    993    986    990   1002     1  180.0000771  2.0083200  2
    993    986    990   1002     1  0.0000000  1.2552000  3
    993    996   1005   1014     1  0.0000000  0.6508444  3
    999   1011   2107   2077     1  180.0000771  0.4184000  2
    999   1011   2107   2077     1  0.0000000  1.6024720  3
   1002   1008   2076   2046     1  180.0000771  0.4184000  2
   1002   1008   2076   2046     1  0.0000000  1.6024720  3
   1008   2076   2046   2049     1  180.0000771  0.4184000  2
   1008   2076   2046   2049     1  0.0000000  1.6024720  3
   1011   2107   2077   2080     1  180.0000771  0.4184000  2
   1011   2107   2077   2080     1  0.0000000  1.6024720  3
   1015   1016   1028   1040     1  0.0000000  0.6508444  3
   1015   1019   1031   1037     1  0.0000000  0.6508444  3
   1015   1022   1025   1034     1  0.0000000  0.6508444  3
   1016   1015   1019   1031     1  180.0000771  2.0083200  2
   1016   1015   1019   1031     1  0.0000000  1.2552000  3
   1016   1015   1022   1025     1  180.0000771  2.0083200  2
   1016   1015   1022   1025     1  0.0000000  1.2552000  3
   1016   1028   1040   2169     1  0.0000000  0.6508444  3
   1019   1015   1016   1028     1  180.0000771  2.0083200  2
   1019   1015   1016   1028     1  0.0000000  1.2552000  3
   1019   1015   1022   1025     1  180.0000771  2.0083200  2
   1019   1015   1022   1025     1  0.0000000  1.2552000  3
   1019   1031   1037   2138     1  0.0000000  0.6508444  3
   1022   1015   1016   1028     1  180.0000771  2.0083200  2
   1022   1015   1016   1028     1  0.0000000  1.2552000  3
   1022   1015   1019   1031     1  180.0000771  2.0083200  2
   1022   1015   1019   1031     1  0.0000000  1.2552000  3
   1022   1025   1034   1043     1  0.0000000  0.6508444  3
   1028   1040   2169   2139     1  180.0000771  0.4184000  2
   1028   1040   2169   2139     1  0.0000000  1.6024720  3
   1031   1037   2138   2108     1  180.0000771  0.4184000  2
   1031   1037   2138   2108     1  0.0000000  1.6024720  3
   1037   2138   2108   2111     1  180.0000771  0.4184000  2
   1037   2138   2108   2111     1  0.0000000  1.6024720  3
   1040   2169   2139   2142     1  180.0000771  0.4184000  2
   1040   2169   2139   2142     1  0.0000000  1.6024720  3
   1044   1045   1057   1069     1  0.0000000  0.6508444  3
   1044   1048   1060   1066     1  0.0000000  0.6508444  3
   1044   1051   1054   1063     1  0.0000000  0.6508444  3
   1045   1044   1048   1060     1  180.0000771  2.0083200  2
   1045   1044   1048   1060     1  0.0000000  1.2552000  3
   1045   1044   1051   1054     1  180.0000771  2.0083200  2
   1045   1044   1051   1054     1  0.0000000  1.2552000  3
   1045   1057   1069   2231     1  0.0000000  0.6508444  3
   1048   1044   1045   1057     1  180.0000771  2.0083200  2
   1048   1044   1045   1057     1  0.0000000  1.2552000  3
   1048   1044   1051   1054     1  180.0000771  2.0083200  2
   1048   1044   1051   1054     1  0.0000000  1.2552000  3
   1048   1060   1066   2200     1  0.0000000  0.6508444  3
   1051   1044   1045   1057     1  180.0000771  2.0083200  2
   1051   1044   1045   1057     1  0.0000000  1.2552000  3
   1051   1044   1048   1060     1  180.0000771  2.0083200  2
   1051   1044   1048   1060     1  0.0000000  1.2552000  3
   1051   1054   1063   1072     1  0.0000000  0.6508444  3
   1057   1069   2231   2201     1  180.0000771  0.4184000  2
   1057   1069   2231   2201     1  0.0000000  1.6024720  3
   1060   1066   2200   2170     1  180.0000771  0.4184000  2
   1060   1066   2200   2170     1  0.0000000  1.6024720  3
   1066   2200   2170   2173     1  180.0000771  0.4184000  2
   1066   2200   2170   2173     1  0.0000000  1.6024720  3
   1069   2231   2201   2204     1  180.0000771  0.4184000  2
   1069   2231   2201   2204     1  0.0000000  1.6024720  3
   1073   1074   1086   1098     1  0.0000000  0.6508444  3
   1073   1077   1089   1095     1  0.0000000  0.6508444  3
   1073   1080   1083   1092     1  0.0000000  0.6508444  3
   1074   1073   1077   1089     1  180.0000771  2.0083200  2
   1074   1073   1077   1089     1  0.0000000  1.2552000  3
   1074   1073   1080   1083     1  180.0000771  2.0083200  2
   1074   1073   1080   1083     1  0.0000000  1.2552000  3
   1074   1086   1098   2293     1  0.0000000  0.6508444  3
   1077   1073   1074   1086     1  180.0000771  2.0083200  2
   1077   1073   1074   1086     1  0.0000000  1.2552000  3
   1077   1073   1080   1083     1  180.0000771  2.0083200  2
   1077   1073   1080   1083     1  0.0000000  1.2552000  3
   1077   1089   1095   2262     1  0.0000000  0.6508444  3
   1080   1073   1074   1086     1  180.0000771  2.0083200  2
   1080   1073   1074   1086     1  0.0000000  1.2552000  3
   1080   1073   1077   1089     1  180.0000771  2.0083200  2
   1080   1073   1077   1089     1  0.0000000  1.2552000  3
   1080   1083   1092   1101     1  0.0000000  0.6508444  3
   1086   1098   2293   2263     1  180.0000771  0.4184000  2
   1086   1098   2293   2263     1  0.0000000  1.6024720  3
   1089   1095   2262   2232     1  180.0000771  0.4184000  2
   1089   1095   2262   2232     1  0.0000000  1.6024720  3
   1095   2262   2232   2235     1  180.0000771  0.4184000  2
   1095   2262   2232   2235     1  0.0000000  1.6024720  3
   1098   2293   2263   2266     1  180.0000771  0.4184000  2
   1098   2293   2263   2266     1  0.0000000  1.6024720  3
   1102   1103   1115   1127     1  0.0000000  0.6508444  3
   1102   1106   1118   1124     1  0.0000000  0.6508444  3
   1102   1109   1112   1121     1  0.0000000  0.6508444  3
   1103   1102   1106   1118     1  180.0000771  2.0083200  2
   1103   1102   1106   1118     1  0.0000000  1.2552000  3
   1103   1102   1109   1112     1  180.0000771  2.0083200  2
   1103   1102   1109   1112     1  0.0000000  1.2552000  3
   1103   1115   1127   2355     1  0.0000000  0.6508444  3
   1106   1102   1103   1115     1  180.0000771  2.0083200  2
   1106   1102   1103   1115     1  0.0000000  1.2552000  3
   1106   1102   1109   1112     1  180.0000771  2.0083200  2
   1106   1102   1109   1112     1  0.0000000  1.2552000  3
   1106   1118   1124   2324     1  0.0000000  0.6508444  3
   1109   1102   1103   1115     1  180.0000771  2.0083200  2
   1109   1102   1103   1115     1  0.0000000  1.2552000  3
   1109   1102   1106   1118     1  180.0000771  2.0083200  2
   1109   1102   1106   1118     1  0.0000000  1.2552000  3
   1109   1112   1121   1130     1  0.0000000  0.6508444  3
   1115   1127   2355   2325     1  180.0000771  0.4184000  2
   1115   1127   2355   2325     1  0.0000000  1.6024720  3
   1118   1124   2324   2294     1  180.0000771  0.4184000  2
   1118   1124   2324   2294     1  0.0000000  1.6024720  3
   1124   2324   2294   2297     1  180.0000771  0.4184000  2
   1124   2324   2294   2297     1  0.0000000  1.6024720  3
   1127   2355   2325   2328     1  180.0000771  0.4184000  2
   1127   2355   2325   2328     1  0.0000000  1.6024720  3
   1131   1132   1144   1156     1  0.0000000  0.6508444  3
   1131   1135   1147   1153     1  0.0000000  0.6508444  3
   1131   1138   1141   1150     1  0.0000000  0.6508444  3
   1132   1131   1135   1147     1  180.0000771  2.0083200  2
   1132   1131   1135   1147     1  0.0000000  1.2552000  3
   1132   1131   1138   1141     1  180.0000771  2.0083200  2
   1132   1131   1138   1141     1  0.0000000  1.2552000  3
   1132   1144   1156   2417     1  0.0000000  0.6508444  3
   1135   1131   1132   1144     1  180.0000771  2.0083200  2
   1135   1131   1132   1144     1  0.0000000  1.2552000  3
   1135   1131   1138   1141     1  180.0000771  2.0083200  2
   1135   1131   1138   1141     1  0.0000000  1.2552000  3
   1135   1147   1153   2386     1  0.0000000  0.6508444  3
   1138   1131   1132   1144     1  180.0000771  2.0083200  2
   1138   1131   1132   1144     1  0.0000000  1.2552000  3
   1138   1131   1135   1147     1  180.0000771  2.0083200  2
   1138   1131   1135   1147     1  0.0000000  1.2552000  3
   1138   1141   1150   1159     1  0.0000000  0.6508444  3
   1144   1156   2417   2387     1  180.0000771  0.4184000  2
   1144   1156   2417   2387     1  0.0000000  1.6024720  3
   1147   1153   2386   2356     1  180.0000771  0.4184000  2
   1147   1153   2386   2356     1  0.0000000  1.6024720  3
   1153   2386   2356   2359     1  180.0000771  0.4184000  2
   1153   2386   2356   2359     1  0.0000000  1.6024720  3
   1156   2417   2387   2390     1  180.0000771  0.4184000  2
   1156   2417   2387   2390     1  0.0000000  1.6024720  3
   1160   1161   1173   1185     1  0.0000000  0.6508444  3
   1160   1164   1176   1182     1  0.0000000  0.6508444  3
   1160   1167   1170   1179     1  0.0000000  0.6508444  3
   1161   1160   1164   1176     1  180.0000771  2.0083200  2
   1161   1160   1164   1176     1  0.0000000  1.2552000  3
   1161   1160   1167   1170     1  180.0000771  2.0083200  2
   1161   1160   1167   1170     1  0.0000000  1.2552000  3
   1161   1173   1185   2479     1  0.0000000  0.6508444  3
   1164   1160   1161   1173     1  180.0000771  2.0083200  2
   1164   1160   1161   1173     1  0.0000000  1.2552000  3
   1164   1160   1167   1170     1  180.0000771  2.0083200  2
   1164   1160   1167   1170     1  0.0000000  1.2552000  3
   1164   1176   1182   2448     1  0.0000000  0.6508444  3
   1167   1160   1161   1173     1  180.0000771  2.0083200  2
   1167   1160   1161   1173     1  0.0000000  1.2552000  3
   1167   1160   1164   1176     1  180.0000771  2.0083200  2
   1167   1160   1164   1176     1  0.0000000  1.2552000  3
   1167   1170   1179   1188     1  0.0000000  0.6508444  3
   1173   1185   2479   2449     1  180.0000771  0.4184000  2
   1173   1185   2479   2449     1  0.0000000  1.6024720  3
   1176   1182   2448   2418     1  180.0000771  0.4184000  2
   1176   1182   2448   2418     1  0.0000000  1.6024720  3
   1182   2448   2418   2421     1  180.0000771  0.4184000  2
   1182   2448   2418   2421     1  0.0000000  1.6024720  3
   1185   2479   2449   2452     1  180.0000771  0.4184000  2
   1185   2479   2449   2452     1  0.0000000  1.6024720  3
   1189   1190   1202   1214     1  0.0000000  0.6508444  3
   1189   1193   1205   1211     1  0.0000000  0.6508444  3
   1189   1196   1199   1208     1  0.0000000  0.6508444  3
   1190   1189   1193   1205     1  180.0000771  2.0083200  2
   1190   1189   1193   1205     1  0.0000000  1.2552000  3
   1190   1189   1196   1199     1  180.0000771  2.0083200  2
   1190   1189   1196   1199     1  0.0000000  1.2552000  3
   1190   1202   1214   2541     1  0.0000000  0.6508444  3
   1193   1189   1190   1202     1  180.0000771  2.0083200  2
   1193   1189   1190   1202     1  0.0000000  1.2552000  3
   1193   1189   1196   1199     1  180.0000771  2.0083200  2
   1193   1189   1196   1199     1  0.0000000  1.2552000  3
   1193   1205   1211   2510     1  0.0000000  0.6508444  3
   1196   1189   1190   1202     1  180.0000771  2.0083200  2
   1196   1189   1190   1202     1  0.0000000  1.2552000  3
   1196   1189   1193   1205     1  180.0000771  2.0083200  2
   1196   1189   1193   1205     1  0.0000000  1.2552000  3
   1196   1199   1208   1217     1  0.0000000  0.6508444  3
   1202   1214   2541   2511     1  180.0000771  0.4184000  2
   1202   1214   2541   2511     1  0.0000000  1.6024720  3
   1205   1211   2510   2480     1  180.0000771  0.4184000  2
   1205   1211   2510   2480     1  0.0000000  1.6024720  3
   1211   2510   2480   2483     1  180.0000771  0.4184000  2
   1211   2510   2480   2483     1  0.0000000  1.6024720  3
   1214   2541   2511   2514     1  180.0000771  0.4184000  2
   1214   2541   2511   2514     1  0.0000000  1.6024720  3
   1218   1219   1231   1243     1  0.0000000  0.6508444  3
   1218   1222   1234   1240     1  0.0000000  0.6508444  3
   1218   1225   1228   1237     1  0.0000000  0.6508444  3
   1219   1218   1222   1234     1  180.0000771  2.0083200  2
   1219   1218   1222   1234     1  0.0000000  1.2552000  3
   1219   1218   1225   1228     1  180.0000771  2.0083200  2
   1219   1218   1225   1228     1  0.0000000  1.2552000  3
   1219   1231   1243   2603     1  0.0000000  0.6508444  3
   1222   1218   1219   1231     1  180.0000771  2.0083200  2
   1222   1218   1219   1231     1  0.0000000  1.2552000  3
   1222   1218   1225   1228     1  180.0000771  2.0083200  2
   1222   1218   1225   1228     1  0.0000000  1.2552000  3
   1222   1234   1240   2572     1  0.0000000  0.6508444  3
   1225   1218   1219   1231     1  180.0000771  2.0083200  2
   1225   1218   1219   1231     1  0.0000000  1.2552000  3
   1225   1218   1222   1234     1  180.0000771  2.0083200  2
   1225   1218   1222   1234     1  0.0000000  1.2552000  3
   1225   1228   1237   1246     1  0.0000000  0.6508444  3
   1231   1243   2603   2573     1  180.0000771  0.4184000  2
   1231   1243   2603   2573     1  0.0000000  1.6024720  3
   1234   1240   2572   2542     1  180.0000771  0.4184000  2
   1234   1240   2572   2542     1  0.0000000  1.6024720  3
   1240   2572   2542   2545     1  180.0000771  0.4184000  2
   1240   2572   2542   2545     1  0.0000000  1.6024720  3
   1243   2603   2573   2576     1  180.0000771  0.4184000  2
   1243   2603   2573   2576     1  0.0000000  1.6024720  3
   1247   1248   1260   1272     1  0.0000000  0.6508444  3
   1247   1251   1263   1269     1  0.0000000  0.6508444  3
   1247   1254   1257   1266     1  0.0000000  0.6508444  3
   1248   1247   1251   1263     1  180.0000771  2.0083200  2
   1248   1247   1251   1263     1  0.0000000  1.2552000  3
   1248   1247   1254   1257     1  180.0000771  2.0083200  2
   1248   1247   1254   1257     1  0.0000000  1.2552000  3
   1248   1260   1272   2665     1  0.0000000  0.6508444  3
   1251   1247   1248   1260     1  180.0000771  2.0083200  2
   1251   1247   1248   1260     1  0.0000000  1.2552000  3
   1251   1247   1254   1257     1  180.0000771  2.0083200  2
   1251   1247   1254   1257     1  0.0000000  1.2552000  3
   1251   1263   1269   2634     1  0.0000000  0.6508444  3
   1254   1247   1248   1260     1  180.0000771  2.0083200  2
   1254   1247   1248   1260     1  0.0000000  1.2552000  3
   1254   1247   1251   1263     1  180.0000771  2.0083200  2
   1254   1247   1251   1263     1  0.0000000  1.2552000  3
   1254   1257   1266   1275     1  0.0000000  0.6508444  3
   1260   1272   2665   2635     1  180.0000771  0.4184000  2
   1260   1272   2665   2635     1  0.0000000  1.6024720  3
   1263   1269   2634   2604     1  180.0000771  0.4184000  2
   1263   1269   2634   2604     1  0.0000000  1.6024720  3
   1269   2634   2604   2607     1  180.0000771  0.4184000  2
   1269   2634   2604   2607     1  0.0000000  1.6024720  3
   1272   2665   2635   2638     1  180.0000771  0.4184000  2
   1272   2665   2635   2638     1  0.0000000  1.6024720  3
   1276   1277   1289   1301     1  0.0000000  0.6508444  3
   1276   1280   1292   1298     1  0.0000000  0.6508444  3
   1276   1283   1286   1295     1  0.0000000  0.6508444  3
   1277   1276   1280   1292     1  180.0000771  2.0083200  2
   1277   1276   1280   1292     1  0.0000000  1.2552000  3
   1277   1276   1283   1286     1  180.0000771  2.0083200  2
   1277   1276   1283   1286     1  0.0000000  1.2552000  3
   1277   1289   1301   2727     1  0.0000000  0.6508444  3
   1280   1276   1277   1289     1  180.0000771  2.0083200  2
   1280   1276   1277   1289     1  0.0000000  1.2552000  3
   1280   1276   1283   1286     1  180.0000771  2.0083200  2
   1280   1276   1283   1286     1  0.0000000  1.2552000  3
   1280   1292   1298   2696     1  0.0000000  0.6508444  3
   1283   1276   1277   1289     1  180.0000771  2.0083200  2
   1283   1276   1277   1289     1  0.0000000  1.2552000  3
   1283   1276   1280   1292     1  180.0000771  2.0083200  2
   1283   1276   1280   1292     1  0.0000000  1.2552000  3
   1283   1286   1295   1304     1  0.0000000  0.6508444  3
   1289   1301   2727   2697     1  180.0000771  0.4184000  2
   1289   1301   2727   2697     1  0.0000000  1.6024720  3
   1292   1298   2696   2666     1  180.0000771  0.4184000  2
   1292   1298   2696   2666     1  0.0000000  1.6024720  3
   1298   2696   2666   2669     1  180.0000771  0.4184000  2
   1298   2696   2666   2669     1  0.0000000  1.6024720  3
   1301   2727   2697   2700     1  180.0000771  0.4184000  2
   1301   2727   2697   2700     1  0.0000000  1.6024720  3
   1305   1306   1318   1330     1  0.0000000  0.6508444  3
   1305   1309   1321   1327     1  0.0000000  0.6508444  3
   1305   1312   1315   1324     1  0.0000000  0.6508444  3
   1306   1305   1309   1321     1  180.0000771  2.0083200  2
   1306   1305   1309   1321     1  0.0000000  1.2552000  3
   1306   1305   1312   1315     1  180.0000771  2.0083200  2
   1306   1305   1312   1315     1  0.0000000  1.2552000  3
   1306   1318   1330   2789     1  0.0000000  0.6508444  3
   1309   1305   1306   1318     1  180.0000771  2.0083200  2
   1309   1305   1306   1318     1  0.0000000  1.2552000  3
   1309   1305   1312   1315     1  180.0000771  2.0083200  2
   1309   1305   1312   1315     1  0.0000000  1.2552000  3
   1309   1321   1327   2758     1  0.0000000  0.6508444  3
   1312   1305   1306   1318     1  180.0000771  2.0083200  2
   1312   1305   1306   1318     1  0.0000000  1.2552000  3
   1312   1305   1309   1321     1  180.0000771  2.0083200  2
   1312   1305   1309   1321     1  0.0000000  1.2552000  3
   1312   1315   1324   1333     1  0.0000000  0.6508444  3
   1318   1330   2789   2759     1  180.0000771  0.4184000  2
   1318   1330   2789   2759     1  0.0000000  1.6024720  3
   1321   1327   2758   2728     1  180.0000771  0.4184000  2
   1321   1327   2758   2728     1  0.0000000  1.6024720  3
   1327   2758   2728   2731     1  180.0000771  0.4184000  2
   1327   2758   2728   2731     1  0.0000000  1.6024720  3
   1330   2789   2759   2762     1  180.0000771  0.4184000  2
   1330   2789   2759   2762     1  0.0000000  1.6024720  3
   1334   1335   1347   1359     1  0.0000000  0.6508444  3
   1334   1338   1350   1356     1  0.0000000  0.6508444  3
   1334   1341   1344   1353     1  0.0000000  0.6508444  3
   1335   1334   1338   1350     1  180.0000771  2.0083200  2
   1335   1334   1338   1350     1  0.0000000  1.2552000  3
   1335   1334   1341   1344     1  180.0000771  2.0083200  2
   1335   1334   1341   1344     1  0.0000000  1.2552000  3
   1335   1347   1359   2851     1  0.0000000  0.6508444  3
   1338   1334   1335   1347     1  180.0000771  2.0083200  2
   1338   1334   1335   1347     1  0.0000000  1.2552000  3
   1338   1334   1341   1344     1  180.0000771  2.0083200  2
   1338   1334   1341   1344     1  0.0000000  1.2552000  3
   1338   1350   1356   2820     1  0.0000000  0.6508444  3
   1341   1334   1335   1347     1  180.0000771  2.0083200  2
   1341   1334   1335   1347     1  0.0000000  1.2552000  3
   1341   1334   1338   1350     1  180.0000771  2.0083200  2
   1341   1334   1338   1350     1  0.0000000  1.2552000  3
   1341   1344   1353   1362     1  0.0000000  0.6508444  3
   1347   1359   2851   2821     1  180.0000771  0.4184000  2
   1347   1359   2851   2821     1  0.0000000  1.6024720  3
   1350   1356   2820   2790     1  180.0000771  0.4184000  2
   1350   1356   2820   2790     1  0.0000000  1.6024720  3
   1356   2820   2790   2793     1  180.0000771  0.4184000  2
   1356   2820   2790   2793     1  0.0000000  1.6024720  3
   1359   2851   2821   2824     1  180.0000771  0.4184000  2
   1359   2851   2821   2824     1  0.0000000  1.6024720  3
   1363   1364   1376   1388     1  0.0000000  0.6508444  3
   1363   1367   1379   1385     1  0.0000000  0.6508444  3
   1363   1370   1373   1382     1  0.0000000  0.6508444  3
   1364   1363   1367   1379     1  180.0000771  2.0083200  2
   1364   1363   1367   1379     1  0.0000000  1.2552000  3
   1364   1363   1370   1373     1  180.0000771  2.0083200  2
   1364   1363   1370   1373     1  0.0000000  1.2552000  3
   1364   1376   1388   2913     1  0.0000000  0.6508444  3
   1367   1363   1364   1376     1  180.0000771  2.0083200  2
   1367   1363   1364   1376     1  0.0000000  1.2552000  3
   1367   1363   1370   1373     1  180.0000771  2.0083200  2
   1367   1363   1370   1373     1  0.0000000  1.2552000  3
   1367   1379   1385   2882     1  0.0000000  0.6508444  3
   1370   1363   1364   1376     1  180.0000771  2.0083200  2
   1370   1363   1364   1376     1  0.0000000  1.2552000  3
   1370   1363   1367   1379     1  180.0000771  2.0083200  2
   1370   1363   1367   1379     1  0.0000000  1.2552000  3
   1370   1373   1382   1391     1  0.0000000  0.6508444  3
   1376   1388   2913   2883     1  180.0000771  0.4184000  2
   1376   1388   2913   2883     1  0.0000000  1.6024720  3
   1379   1385   2882   2852     1  180.0000771  0.4184000  2
   1379   1385   2882   2852     1  0.0000000  1.6024720  3
   1385   2882   2852   2855     1  180.0000771  0.4184000  2
   1385   2882   2852   2855     1  0.0000000  1.6024720  3
   1388   2913   2883   2886     1  180.0000771  0.4184000  2
   1388   2913   2883   2886     1  0.0000000  1.6024720  3
   1392   1393   1405   1417     1  0.0000000  0.6508444  3
   1392   1396   1408   1414     1  0.0000000  0.6508444  3
   1392   1399   1402   1411     1  0.0000000  0.6508444  3
   1393   1392   1396   1408     1  180.0000771  2.0083200  2
   1393   1392   1396   1408     1  0.0000000  1.2552000  3
   1393   1392   1399   1402     1  180.0000771  2.0083200  2
   1393   1392   1399   1402     1  0.0000000  1.2552000  3
   1393   1405   1417   2975     1  0.0000000  0.6508444  3
   1396   1392   1393   1405     1  180.0000771  2.0083200  2
   1396   1392   1393   1405     1  0.0000000  1.2552000  3
   1396   1392   1399   1402     1  180.0000771  2.0083200  2
   1396   1392   1399   1402     1  0.0000000  1.2552000  3
   1396   1408   1414   2944     1  0.0000000  0.6508444  3
   1399   1392   1393   1405     1  180.0000771  2.0083200  2
   1399   1392   1393   1405     1  0.0000000  1.2552000  3
   1399   1392   1396   1408     1  180.0000771  2.0083200  2
   1399   1392   1396   1408     1  0.0000000  1.2552000  3
   1399   1402   1411   1420     1  0.0000000  0.6508444  3
   1405   1417   2975   2945     1  180.0000771  0.4184000  2
   1405   1417   2975   2945     1  0.0000000  1.6024720  3
   1408   1414   2944   2914     1  180.0000771  0.4184000  2
   1408   1414   2944   2914     1  0.0000000  1.6024720  3
   1414   2944   2914   2917     1  180.0000771  0.4184000  2
   1414   2944   2914   2917     1  0.0000000  1.6024720  3
   1417   2975   2945   2948     1  180.0000771  0.4184000  2
   1417   2975   2945   2948     1  0.0000000  1.6024720  3
   1421   1422   1434   1446     1  0.0000000  0.6508444  3
   1421   1425   1437   1443     1  0.0000000  0.6508444  3
   1421   1428   1431   1440     1  0.0000000  0.6508444  3
   1422   1421   1425   1437     1  180.0000771  2.0083200  2
   1422   1421   1425   1437     1  0.0000000  1.2552000  3
   1422   1421   1428   1431     1  180.0000771  2.0083200  2
   1422   1421   1428   1431     1  0.0000000  1.2552000  3
   1422   1434   1446   3037     1  0.0000000  0.6508444  3
   1425   1421   1422   1434     1  180.0000771  2.0083200  2
   1425   1421   1422   1434     1  0.0000000  1.2552000  3
   1425   1421   1428   1431     1  180.0000771  2.0083200  2
   1425   1421   1428   1431     1  0.0000000  1.2552000  3
   1425   1437   1443   3006     1  0.0000000  0.6508444  3
   1428   1421   1422   1434     1  180.0000771  2.0083200  2
   1428   1421   1422   1434     1  0.0000000  1.2552000  3
   1428   1421   1425   1437     1  180.0000771  2.0083200  2
   1428   1421   1425   1437     1  0.0000000  1.2552000  3
   1428   1431   1440   1449     1  0.0000000  0.6508444  3
   1434   1446   3037   3007     1  180.0000771  0.4184000  2
   1434   1446   3037   3007     1  0.0000000  1.6024720  3
   1437   1443   3006   2976     1  180.0000771  0.4184000  2
   1437   1443   3006   2976     1  0.0000000  1.6024720  3
   1443   3006   2976   2979     1  180.0000771  0.4184000  2
   1443   3006   2976   2979     1  0.0000000  1.6024720  3
   1446   3037   3007   3010     1  180.0000771  0.4184000  2
   1446   3037   3007   3010     1  0.0000000  1.6024720  3
   1450   1451   1463   1475     1  0.0000000  0.6508444  3
   1450   1454   1466   1472     1  0.0000000  0.6508444  3
   1450   1457   1460   1469     1  0.0000000  0.6508444  3
   1451   1450   1454   1466     1  180.0000771  2.0083200  2
   1451   1450   1454   1466     1  0.0000000  1.2552000  3
   1451   1450   1457   1460     1  180.0000771  2.0083200  2
   1451   1450   1457   1460     1  0.0000000  1.2552000  3
   1451   1463   1475   3099     1  0.0000000  0.6508444  3
   1454   1450   1451   1463     1  180.0000771  2.0083200  2
   1454   1450   1451   1463     1  0.0000000  1.2552000  3
   1454   1450   1457   1460     1  180.0000771  2.0083200  2
   1454   1450   1457   1460     1  0.0000000  1.2552000  3
   1454   1466   1472   3068     1  0.0000000  0.6508444  3
   1457   1450   1451   1463     1  180.0000771  2.0083200  2
   1457   1450   1451   1463     1  0.0000000  1.2552000  3
   1457   1450   1454   1466     1  180.0000771  2.0083200  2
   1457   1450   1454   1466     1  0.0000000  1.2552000  3
   1457   1460   1469   1478     1  0.0000000  0.6508444  3
   1463   1475   3099   3069     1  180.0000771  0.4184000  2
   1463   1475   3099   3069     1  0.0000000  1.6024720  3
   1466   1472   3068   3038     1  180.0000771  0.4184000  2
   1466   1472   3068   3038     1  0.0000000  1.6024720  3
   1472   3068   3038   3041     1  180.0000771  0.4184000  2
   1472   3068   3038   3041     1  0.0000000  1.6024720  3
   1475   3099   3069   3072     1  180.0000771  0.4184000  2
   1475   3099   3069   3072     1  0.0000000  1.6024720  3
   1479   1480   1492   1504     1  0.0000000  0.6508444  3
   1479   1483   1495   1501     1  0.0000000  0.6508444  3
   1479   1486   1489   1498     1  0.0000000  0.6508444  3
   1480   1479   1483   1495     1  180.0000771  2.0083200  2
   1480   1479   1483   1495     1  0.0000000  1.2552000  3
   1480   1479   1486   1489     1  180.0000771  2.0083200  2
   1480   1479   1486   1489     1  0.0000000  1.2552000  3
   1480   1492   1504   3161     1  0.0000000  0.6508444  3
   1483   1479   1480   1492     1  180.0000771  2.0083200  2
   1483   1479   1480   1492     1  0.0000000  1.2552000  3
   1483   1479   1486   1489     1  180.0000771  2.0083200  2
   1483   1479   1486   1489     1  0.0000000  1.2552000  3
   1483   1495   1501   3130     1  0.0000000  0.6508444  3
   1486   1479   1480   1492     1  180.0000771  2.0083200  2
   1486   1479   1480   1492     1  0.0000000  1.2552000  3
   1486   1479   1483   1495     1  180.0000771  2.0083200  2
   1486   1479   1483   1495     1  0.0000000  1.2552000  3
   1486   1489   1498   1507     1  0.0000000  0.6508444  3
   1492   1504   3161   3131     1  180.0000771  0.4184000  2
   1492   1504   3161   3131     1  0.0000000  1.6024720  3
   1495   1501   3130   3100     1  180.0000771  0.4184000  2
   1495   1501   3130   3100     1  0.0000000  1.6024720  3
   1501   3130   3100   3103     1  180.0000771  0.4184000  2
   1501   3130   3100   3103     1  0.0000000  1.6024720  3
   1504   3161   3131   3134     1  180.0000771  0.4184000  2
   1504   3161   3131   3134     1  0.0000000  1.6024720  3
   1508   1509   1521   1533     1  0.0000000  0.6508444  3
   1508   1512   1524   1530     1  0.0000000  0.6508444  3
   1508   1515   1518   1527     1  0.0000000  0.6508444  3
   1509   1508   1512   1524     1  180.0000771  2.0083200  2
   1509   1508   1512   1524     1  0.0000000  1.2552000  3
   1509   1508   1515   1518     1  180.0000771  2.0083200  2
   1509   1508   1515   1518     1  0.0000000  1.2552000  3
   1509   1521   1533   3223     1  0.0000000  0.6508444  3
   1512   1508   1509   1521     1  180.0000771  2.0083200  2
   1512   1508   1509   1521     1  0.0000000  1.2552000  3
   1512   1508   1515   1518     1  180.0000771  2.0083200  2
   1512   1508   1515   1518     1  0.0000000  1.2552000  3
   1512   1524   1530   3192     1  0.0000000  0.6508444  3
   1515   1508   1509   1521     1  180.0000771  2.0083200  2
   1515   1508   1509   1521     1  0.0000000  1.2552000  3
   1515   1508   1512   1524     1  180.0000771  2.0083200  2
   1515   1508   1512   1524     1  0.0000000  1.2552000  3
   1515   1518   1527   1536     1  0.0000000  0.6508444  3
   1521   1533   3223   3193     1  180.0000771  0.4184000  2
   1521   1533   3223   3193     1  0.0000000  1.6024720  3
   1524   1530   3192   3162     1  180.0000771  0.4184000  2
   1524   1530   3192   3162     1  0.0000000  1.6024720  3
   1530   3192   3162   3165     1  180.0000771  0.4184000  2
   1530   3192   3162   3165     1  0.0000000  1.6024720  3
   1533   3223   3193   3196     1  180.0000771  0.4184000  2
   1533   3223   3193   3196     1  0.0000000  1.6024720  3
   1537   1538   1550   1562     1  0.0000000  0.6508444  3
   1537   1541   1553   1559     1  0.0000000  0.6508444  3
   1537   1544   1547   1556     1  0.0000000  0.6508444  3
   1538   1537   1541   1553     1  180.0000771  2.0083200  2
   1538   1537   1541   1553     1  0.0000000  1.2552000  3
   1538   1537   1544   1547     1  180.0000771  2.0083200  2
   1538   1537   1544   1547     1  0.0000000  1.2552000  3
   1538   1550   1562   3285     1  0.0000000  0.6508444  3
   1541   1537   1538   1550     1  180.0000771  2.0083200  2
   1541   1537   1538   1550     1  0.0000000  1.2552000  3
   1541   1537   1544   1547     1  180.0000771  2.0083200  2
   1541   1537   1544   1547     1  0.0000000  1.2552000  3
   1541   1553   1559   3254     1  0.0000000  0.6508444  3
   1544   1537   1538   1550     1  180.0000771  2.0083200  2
   1544   1537   1538   1550     1  0.0000000  1.2552000  3
   1544   1537   1541   1553     1  180.0000771  2.0083200  2
   1544   1537   1541   1553     1  0.0000000  1.2552000  3
   1544   1547   1556   1565     1  0.0000000  0.6508444  3
   1550   1562   3285   3255     1  180.0000771  0.4184000  2
   1550   1562   3285   3255     1  0.0000000  1.6024720  3
   1553   1559   3254   3224     1  180.0000771  0.4184000  2
   1553   1559   3254   3224     1  0.0000000  1.6024720  3
   1559   3254   3224   3227     1  180.0000771  0.4184000  2
   1559   3254   3224   3227     1  0.0000000  1.6024720  3
   1562   3285   3255   3258     1  180.0000771  0.4184000  2
   1562   3285   3255   3258     1  0.0000000  1.6024720  3
   1566   1567   1579   1591     1  0.0000000  0.6508444  3
   1566   1570   1582   1588     1  0.0000000  0.6508444  3
   1566   1573   1576   1585     1  0.0000000  0.6508444  3
   1567   1566   1570   1582     1  180.0000771  2.0083200  2
   1567   1566   1570   1582     1  0.0000000  1.2552000  3
   1567   1566   1573   1576     1  180.0000771  2.0083200  2
   1567   1566   1573   1576     1  0.0000000  1.2552000  3
   1567   1579   1591   3347     1  0.0000000  0.6508444  3
   1570   1566   1567   1579     1  180.0000771  2.0083200  2
   1570   1566   1567   1579     1  0.0000000  1.2552000  3
   1570   1566   1573   1576     1  180.0000771  2.0083200  2
   1570   1566   1573   1576     1  0.0000000  1.2552000  3
   1570   1582   1588   3316     1  0.0000000  0.6508444  3
   1573   1566   1567   1579     1  180.0000771  2.0083200  2
   1573   1566   1567   1579     1  0.0000000  1.2552000  3
   1573   1566   1570   1582     1  180.0000771  2.0083200  2
   1573   1566   1570   1582     1  0.0000000  1.2552000  3
   1573   1576   1585   1594     1  0.0000000  0.6508444  3
   1579   1591   3347   3317     1  180.0000771  0.4184000  2
   1579   1591   3347   3317     1  0.0000000  1.6024720  3
   1582   1588   3316   3286     1  180.0000771  0.4184000  2
   1582   1588   3316   3286     1  0.0000000  1.6024720  3
   1588   3316   3286   3289     1  180.0000771  0.4184000  2
   1588   3316   3286   3289     1  0.0000000  1.6024720  3
   1591   3347   3317   3320     1  180.0000771  0.4184000  2
   1591   3347   3317   3320     1  0.0000000  1.6024720  3
   1595   1596   1608   1620     1  0.0000000  0.6508444  3
   1595   1599   1611   1617     1  0.0000000  0.6508444  3
   1595   1602   1605   1614     1  0.0000000  0.6508444  3
   1596   1595   1599   1611     1  180.0000771  2.0083200  2
   1596   1595   1599   1611     1  0.0000000  1.2552000  3
   1596   1595   1602   1605     1  180.0000771  2.0083200  2
   1596   1595   1602   1605     1  0.0000000  1.2552000  3
   1596   1608   1620   3409     1  0.0000000  0.6508444  3
   1599   1595   1596   1608     1  180.0000771  2.0083200  2
   1599   1595   1596   1608     1  0.0000000  1.2552000  3
   1599   1595   1602   1605     1  180.0000771  2.0083200  2
   1599   1595   1602   1605     1  0.0000000  1.2552000  3
   1599   1611   1617   3378     1  0.0000000  0.6508444  3
   1602   1595   1596   1608     1  180.0000771  2.0083200  2
   1602   1595   1596   1608     1  0.0000000  1.2552000  3
   1602   1595   1599   1611     1  180.0000771  2.0083200  2
   1602   1595   1599   1611     1  0.0000000  1.2552000  3
   1602   1605   1614   1623     1  0.0000000  0.6508444  3
   1608   1620   3409   3379     1  180.0000771  0.4184000  2
   1608   1620   3409   3379     1  0.0000000  1.6024720  3
   1611   1617   3378   3348     1  180.0000771  0.4184000  2
   1611   1617   3378   3348     1  0.0000000  1.6024720  3
   1617   3378   3348   3351     1  180.0000771  0.4184000  2
   1617   3378   3348   3351     1  0.0000000  1.6024720  3
   1620   3409   3379   3382     1  180.0000771  0.4184000  2
   1620   3409   3379   3382     1  0.0000000  1.6024720  3
   1624   1625   1637   1649     1  0.0000000  0.6508444  3
   1624   1628   1640   1646     1  0.0000000  0.6508444  3
   1624   1631   1634   1643     1  0.0000000  0.6508444  3
   1625   1624   1628   1640     1  180.0000771  2.0083200  2
   1625   1624   1628   1640     1  0.0000000  1.2552000  3
   1625   1624   1631   1634     1  180.0000771  2.0083200  2
   1625   1624   1631   1634     1  0.0000000  1.2552000  3
   1625   1637   1649   3471     1  0.0000000  0.6508444  3
   1628   1624   1625   1637     1  180.0000771  2.0083200  2
   1628   1624   1625   1637     1  0.0000000  1.2552000  3
   1628   1624   1631   1634     1  180.0000771  2.0083200  2
   1628   1624   1631   1634     1  0.0000000  1.2552000  3
   1628   1640   1646   3440     1  0.0000000  0.6508444  3
   1631   1624   1625   1637     1  180.0000771  2.0083200  2
   1631   1624   1625   1637     1  0.0000000  1.2552000  3
   1631   1624   1628   1640     1  180.0000771  2.0083200  2
   1631   1624   1628   1640     1  0.0000000  1.2552000  3
   1631   1634   1643   1652     1  0.0000000  0.6508444  3
   1637   1649   3471   3441     1  180.0000771  0.4184000  2
   1637   1649   3471   3441     1  0.0000000  1.6024720  3
   1640   1646   3440   3410     1  180.0000771  0.4184000  2
   1640   1646   3440   3410     1  0.0000000  1.6024720  3
   1646   3440   3410   3413     1  180.0000771  0.4184000  2
   1646   3440   3410   3413     1  0.0000000  1.6024720  3
   1649   3471   3441   3444     1  180.0000771  0.4184000  2
   1649   3471   3441   3444     1  0.0000000  1.6024720  3
   1653   1654   1666   1678     1  0.0000000  0.6508444  3
   1653   1657   1669   1675     1  0.0000000  0.6508444  3
   1653   1660   1663   1672     1  0.0000000  0.6508444  3
   1654   1653   1657   1669     1  180.0000771  2.0083200  2
   1654   1653   1657   1669     1  0.0000000  1.2552000  3
   1654   1653   1660   1663     1  180.0000771  2.0083200  2
   1654   1653   1660   1663     1  0.0000000  1.2552000  3
   1654   1666   1678   3533     1  0.0000000  0.6508444  3
   1657   1653   1654   1666     1  180.0000771  2.0083200  2
   1657   1653   1654   1666     1  0.0000000  1.2552000  3
   1657   1653   1660   1663     1  180.0000771  2.0083200  2
   1657   1653   1660   1663     1  0.0000000  1.2552000  3
   1657   1669   1675   3502     1  0.0000000  0.6508444  3
   1660   1653   1654   1666     1  180.0000771  2.0083200  2
   1660   1653   1654   1666     1  0.0000000  1.2552000  3
   1660   1653   1657   1669     1  180.0000771  2.0083200  2
   1660   1653   1657   1669     1  0.0000000  1.2552000  3
   1660   1663   1672   1681     1  0.0000000  0.6508444  3
   1666   1678   3533   3503     1  180.0000771  0.4184000  2
   1666   1678   3533   3503     1  0.0000000  1.6024720  3
   1669   1675   3502   3472     1  180.0000771  0.4184000  2
   1669   1675   3502   3472     1  0.0000000  1.6024720  3
   1675   3502   3472   3475     1  180.0000771  0.4184000  2
   1675   3502   3472   3475     1  0.0000000  1.6024720  3
   1678   3533   3503   3506     1  180.0000771  0.4184000  2
   1678   3533   3503   3506     1  0.0000000  1.6024720  3
   1682   1683   1695   1707     1  0.0000000  0.6508444  3
   1682   1686   1698   1704     1  0.0000000  0.6508444  3
   1682   1689   1692   1701     1  0.0000000  0.6508444  3
   1683   1682   1686   1698     1  180.0000771  2.0083200  2
   1683   1682   1686   1698     1  0.0000000  1.2552000  3
   1683   1682   1689   1692     1  180.0000771  2.0083200  2
   1683   1682   1689   1692     1  0.0000000  1.2552000  3
   1683   1695   1707   3595     1  0.0000000  0.6508444  3
   1686   1682   1683   1695     1  180.0000771  2.0083200  2
   1686   1682   1683   1695     1  0.0000000  1.2552000  3
   1686   1682   1689   1692     1  180.0000771  2.0083200  2
   1686   1682   1689   1692     1  0.0000000  1.2552000  3
   1686   1698   1704   3564     1  0.0000000  0.6508444  3
   1689   1682   1683   1695     1  180.0000771  2.0083200  2
   1689   1682   1683   1695     1  0.0000000  1.2552000  3
   1689   1682   1686   1698     1  180.0000771  2.0083200  2
   1689   1682   1686   1698     1  0.0000000  1.2552000  3
   1689   1692   1701   1710     1  0.0000000  0.6508444  3
   1695   1707   3595   3565     1  180.0000771  0.4184000  2
   1695   1707   3595   3565     1  0.0000000  1.6024720  3
   1698   1704   3564   3534     1  180.0000771  0.4184000  2
   1698   1704   3564   3534     1  0.0000000  1.6024720  3
   1704   3564   3534   3537     1  180.0000771  0.4184000  2
   1704   3564   3534   3537     1  0.0000000  1.6024720  3
   1707   3595   3565   3568     1  180.0000771  0.4184000  2
   1707   3595   3565   3568     1  0.0000000  1.6024720  3
   1711   1712   1724   1736     1  0.0000000  0.6508444  3
   1711   1715   1727   1733     1  0.0000000  0.6508444  3
   1711   1718   1721   1730     1  0.0000000  0.6508444  3
   1712   1711   1715   1727     1  180.0000771  2.0083200  2
   1712   1711   1715   1727     1  0.0000000  1.2552000  3
   1712   1711   1718   1721     1  180.0000771  2.0083200  2
   1712   1711   1718   1721     1  0.0000000  1.2552000  3
   1712   1724   1736   3657     1  0.0000000  0.6508444  3
   1715   1711   1712   1724     1  180.0000771  2.0083200  2
   1715   1711   1712   1724     1  0.0000000  1.2552000  3
   1715   1711   1718   1721     1  180.0000771  2.0083200  2
   1715   1711   1718   1721     1  0.0000000  1.2552000  3
   1715   1727   1733   3626     1  0.0000000  0.6508444  3
   1718   1711   1712   1724     1  180.0000771  2.0083200  2
   1718   1711   1712   1724     1  0.0000000  1.2552000  3
   1718   1711   1715   1727     1  180.0000771  2.0083200  2
   1718   1711   1715   1727     1  0.0000000  1.2552000  3
   1718   1721   1730   1739     1  0.0000000  0.6508444  3
   1724   1736   3657   3627     1  180.0000771  0.4184000  2
   1724   1736   3657   3627     1  0.0000000  1.6024720  3
   1727   1733   3626   3596     1  180.0000771  0.4184000  2
   1727   1733   3626   3596     1  0.0000000  1.6024720  3
   1733   3626   3596   3599     1  180.0000771  0.4184000  2
   1733   3626   3596   3599     1  0.0000000  1.6024720  3
   1736   3657   3627   3630     1  180.0000771  0.4184000  2
   1736   3657   3627   3630     1  0.0000000  1.6024720  3
   1740   1741   1753   1765     1  0.0000000  0.6508444  3
   1740   1744   1756   1762     1  0.0000000  0.6508444  3
   1740   1747   1750   1759     1  0.0000000  0.6508444  3
   1741   1740   1744   1756     1  180.0000771  2.0083200  2
   1741   1740   1744   1756     1  0.0000000  1.2552000  3
   1741   1740   1747   1750     1  180.0000771  2.0083200  2
   1741   1740   1747   1750     1  0.0000000  1.2552000  3
   1741   1753   1765   3719     1  0.0000000  0.6508444  3
   1744   1740   1741   1753     1  180.0000771  2.0083200  2
   1744   1740   1741   1753     1  0.0000000  1.2552000  3
   1744   1740   1747   1750     1  180.0000771  2.0083200  2
   1744   1740   1747   1750     1  0.0000000  1.2552000  3
   1744   1756   1762   3688     1  0.0000000  0.6508444  3
   1747   1740   1741   1753     1  180.0000771  2.0083200  2
   1747   1740   1741   1753     1  0.0000000  1.2552000  3
   1747   1740   1744   1756     1  180.0000771  2.0083200  2
   1747   1740   1744   1756     1  0.0000000  1.2552000  3
   1747   1750   1759   1768     1  0.0000000  0.6508444  3
   1753   1765   3719   3689     1  180.0000771  0.4184000  2
   1753   1765   3719   3689     1  0.0000000  1.6024720  3
   1756   1762   3688   3658     1  180.0000771  0.4184000  2
   1756   1762   3688   3658     1  0.0000000  1.6024720  3
   1762   3688   3658   3661     1  180.0000771  0.4184000  2
   1762   3688   3658   3661     1  0.0000000  1.6024720  3
   1765   3719   3689   3692     1  180.0000771  0.4184000  2
   1765   3719   3689   3692     1  0.0000000  1.6024720  3
   1769   1770   1782   1794     1  0.0000000  0.6508444  3
   1769   1773   1785   1791     1  0.0000000  0.6508444  3
   1769   1776   1779   1788     1  0.0000000  0.6508444  3
   1770   1769   1773   1785     1  180.0000771  2.0083200  2
   1770   1769   1773   1785     1  0.0000000  1.2552000  3
   1770   1769   1776   1779     1  180.0000771  2.0083200  2
   1770   1769   1776   1779     1  0.0000000  1.2552000  3
   1770   1782   1794   3781     1  0.0000000  0.6508444  3
   1773   1769   1770   1782     1  180.0000771  2.0083200  2
   1773   1769   1770   1782     1  0.0000000  1.2552000  3
   1773   1769   1776   1779     1  180.0000771  2.0083200  2
   1773   1769   1776   1779     1  0.0000000  1.2552000  3
   1773   1785   1791   3750     1  0.0000000  0.6508444  3
   1776   1769   1770   1782     1  180.0000771  2.0083200  2
   1776   1769   1770   1782     1  0.0000000  1.2552000  3
   1776   1769   1773   1785     1  180.0000771  2.0083200  2
   1776   1769   1773   1785     1  0.0000000  1.2552000  3
   1776   1779   1788   1797     1  0.0000000  0.6508444  3
   1782   1794   3781   3751     1  180.0000771  0.4184000  2
   1782   1794   3781   3751     1  0.0000000  1.6024720  3
   1785   1791   3750   3720     1  180.0000771  0.4184000  2
   1785   1791   3750   3720     1  0.0000000  1.6024720  3
   1791   3750   3720   3723     1  180.0000771  0.4184000  2
   1791   3750   3720   3723     1  0.0000000  1.6024720  3
   1794   3781   3751   3754     1  180.0000771  0.4184000  2
   1794   3781   3751   3754     1  0.0000000  1.6024720  3
   1798   1801   1804   1807     1  0.0000000  0.6508444  3
   1801   1804   1807   1808     1  180.0000771  2.0083200  2
   1801   1804   1807   1808     1  0.0000000  1.2552000  3
   1801   1804   1807   1818     1  180.0000771  2.0083200  2
   1801   1804   1807   1818     1  0.0000000  1.2552000  3
   1804   1801   1798   1828     1  0.0000000  0.6508444  3
   1804   1807   1808   1811     1  180.0000771  2.0083200  2
   1804   1807   1808   1811     1  0.0000000  1.2552000  3
   1804   1807   1818   1821     1  180.0000771  2.0083200  2
   1804   1807   1818   1821     1  0.0000000  1.2552000  3
   1807   1808   1811   1814     1  0.0000000  0.6508444  3
   1807   1818   1821   1824     1  0.0000000  0.6508444  3
   1808   1807   1818   1821     1  180.0000771  2.0083200  2
   1808   1807   1818   1821     1  0.0000000  1.2552000  3
   1808   1811   1814   1815     1  180.0000771  0.0000000  2
   1808   1811   1814   1816     1  180.0000771  0.0000000  2
   1811   1808   1807   1818     1  180.0000771  2.0083200  2
   1811   1808   1807   1818     1  0.0000000  1.2552000  3
   1818   1821   1824   1825     1  180.0000771  0.0000000  2
   1818   1821   1824   1826     1  180.0000771  0.0000000  2
   1829   1832   1835   1838     1  0.0000000  0.6508444  3
   1832   1835   1838   1839     1  180.0000771  2.0083200  2
   1832   1835   1838   1839     1  0.0000000  1.2552000  3
   1832   1835   1838   1849     1  180.0000771  2.0083200  2
   1832   1835   1838   1849     1  0.0000000  1.2552000  3
   1835   1838   1839   1842     1  180.0000771  2.0083200  2
   1835   1838   1839   1842     1  0.0000000  1.2552000  3
   1835   1838   1849   1852     1  180.0000771  2.0083200  2
   1835   1838   1849   1852     1  0.0000000  1.2552000  3
   1835   1832   1829   1859     1  0.0000000  0.6508444  3
   1838   1839   1842   1845     1  0.0000000  0.6508444  3
   1838   1849   1852   1855     1  0.0000000  0.6508444  3
   1839   1842   1845   1846     1  180.0000771  0.0000000  2
   1839   1842   1845   1847     1  180.0000771  0.0000000  2
   1839   1838   1849   1852     1  180.0000771  2.0083200  2
   1839   1838   1849   1852     1  0.0000000  1.2552000  3
   1842   1839   1838   1849     1  180.0000771  2.0083200  2
   1842   1839   1838   1849     1  0.0000000  1.2552000  3
   1849   1852   1855   1856     1  180.0000771  0.0000000  2
   1849   1852   1855   1857     1  180.0000771  0.0000000  2
   1860   1863   1866   1869     1  0.0000000  0.6508444  3
   1863   1866   1869   1870     1  180.0000771  2.0083200  2
   1863   1866   1869   1870     1  0.0000000  1.2552000  3
   1863   1866   1869   1880     1  180.0000771  2.0083200  2
   1863   1866   1869   1880     1  0.0000000  1.2552000  3
   1866   1863   1860   1890     1  0.0000000  0.6508444  3
   1866   1869   1870   1873     1  180.0000771  2.0083200  2
   1866   1869   1870   1873     1  0.0000000  1.2552000  3
   1866   1869   1880   1883     1  180.0000771  2.0083200  2
   1866   1869   1880   1883     1  0.0000000  1.2552000  3
   1869   1870   1873   1876     1  0.0000000  0.6508444  3
   1869   1880   1883   1886     1  0.0000000  0.6508444  3
   1870   1869   1880   1883     1  180.0000771  2.0083200  2
   1870   1869   1880   1883     1  0.0000000  1.2552000  3
   1870   1873   1876   1877     1  180.0000771  0.0000000  2
   1870   1873   1876   1878     1  180.0000771  0.0000000  2
   1873   1870   1869   1880     1  180.0000771  2.0083200  2
   1873   1870   1869   1880     1  0.0000000  1.2552000  3
   1880   1883   1886   1887     1  180.0000771  0.0000000  2
   1880   1883   1886   1888     1  180.0000771  0.0000000  2
   1891   1894   1897   1900     1  0.0000000  0.6508444  3
   1894   1897   1900   1901     1  180.0000771  2.0083200  2
   1894   1897   1900   1901     1  0.0000000  1.2552000  3
   1894   1897   1900   1911     1  180.0000771  2.0083200  2
   1894   1897   1900   1911     1  0.0000000  1.2552000  3
   1897   1900   1901   1904     1  180.0000771  2.0083200  2
   1897   1900   1901   1904     1  0.0000000  1.2552000  3
   1897   1900   1911   1914     1  180.0000771  2.0083200  2
   1897   1900   1911   1914     1  0.0000000  1.2552000  3
   1897   1894   1891   1921     1  0.0000000  0.6508444  3
   1900   1901   1904   1907     1  0.0000000  0.6508444  3
   1900   1911   1914   1917     1  0.0000000  0.6508444  3
   1901   1904   1907   1908     1  180.0000771  0.0000000  2
   1901   1904   1907   1909     1  180.0000771  0.0000000  2
   1901   1900   1911   1914     1  180.0000771  2.0083200  2
   1901   1900   1911   1914     1  0.0000000  1.2552000  3
   1904   1901   1900   1911     1  180.0000771  2.0083200  2
   1904   1901   1900   1911     1  0.0000000  1.2552000  3
   1911   1914   1917   1918     1  180.0000771  0.0000000  2
   1911   1914   1917   1919     1  180.0000771  0.0000000  2
   1922   1925   1928   1931     1  0.0000000  0.6508444  3
   1925   1928   1931   1932     1  180.0000771  2.0083200  2
   1925   1928   1931   1932     1  0.0000000  1.2552000  3
   1925   1928   1931   1942     1  180.0000771  2.0083200  2
   1925   1928   1931   1942     1  0.0000000  1.2552000  3
   1928   1925   1922   1952     1  0.0000000  0.6508444  3
   1928   1931   1932   1935     1  180.0000771  2.0083200  2
   1928   1931   1932   1935     1  0.0000000  1.2552000  3
   1928   1931   1942   1945     1  180.0000771  2.0083200  2
   1928   1931   1942   1945     1  0.0000000  1.2552000  3
   1931   1932   1935   1938     1  0.0000000  0.6508444  3
   1931   1942   1945   1948     1  0.0000000  0.6508444  3
   1932   1931   1942   1945     1  180.0000771  2.0083200  2
   1932   1931   1942   1945     1  0.0000000  1.2552000  3
   1932   1935   1938   1939     1  180.0000771  0.0000000  2
   1932   1935   1938   1940     1  180.0000771  0.0000000  2
   1935   1932   1931   1942     1  180.0000771  2.0083200  2
   1935   1932   1931   1942     1  0.0000000  1.2552000  3
   1942   1945   1948   1949     1  180.0000771  0.0000000  2
   1942   1945   1948   1950     1  180.0000771  0.0000000  2
   1953   1956   1959   1962     1  0.0000000  0.6508444  3
   1956   1959   1962   1963     1  180.0000771  2.0083200  2
   1956   1959   1962   1963     1  0.0000000  1.2552000  3
   1956   1959   1962   1973     1  180.0000771  2.0083200  2
   1956   1959   1962   1973     1  0.0000000  1.2552000  3
   1959   1962   1963   1966     1  180.0000771  2.0083200  2
   1959   1962   1963   1966     1  0.0000000  1.2552000  3
   1959   1962   1973   1976     1  180.0000771  2.0083200  2
   1959   1962   1973   1976     1  0.0000000  1.2552000  3
   1959   1956   1953   1983     1  0.0000000  0.6508444  3
   1962   1963   1966   1969     1  0.0000000  0.6508444  3
   1962   1973   1976   1979     1  0.0000000  0.6508444  3
   1963   1966   1969   1970     1  180.0000771  0.0000000  2
   1963   1966   1969   1971     1  180.0000771  0.0000000  2
   1963   1962   1973   1976     1  180.0000771  2.0083200  2
   1963   1962   1973   1976     1  0.0000000  1.2552000  3
   1966   1963   1962   1973     1  180.0000771  2.0083200  2
   1966   1963   1962   1973     1  0.0000000  1.2552000  3
   1973   1976   1979   1980     1  180.0000771  0.0000000  2
   1973   1976   1979   1981     1  180.0000771  0.0000000  2
   1984   1987   1990   1993     1  0.0000000  0.6508444  3
   1987   1990   1993   1994     1  180.0000771  2.0083200  2
   1987   1990   1993   1994     1  0.0000000  1.2552000  3
   1987   1990   1993   2004     1  180.0000771  2.0083200  2
   1987   1990   1993   2004     1  0.0000000  1.2552000  3
   1990   1987   1984   2014     1  0.0000000  0.6508444  3
   1990   1993   1994   1997     1  180.0000771  2.0083200  2
   1990   1993   1994   1997     1  0.0000000  1.2552000  3
   1990   1993   2004   2007     1  180.0000771  2.0083200  2
   1990   1993   2004   2007     1  0.0000000  1.2552000  3
   1993   1994   1997   2000     1  0.0000000  0.6508444  3
   1993   2004   2007   2010     1  0.0000000  0.6508444  3
   1994   1993   2004   2007     1  180.0000771  2.0083200  2
   1994   1993   2004   2007     1  0.0000000  1.2552000  3
   1994   1997   2000   2001     1  180.0000771  0.0000000  2
   1994   1997   2000   2002     1  180.0000771  0.0000000  2
   1997   1994   1993   2004     1  180.0000771  2.0083200  2
   1997   1994   1993   2004     1  0.0000000  1.2552000  3
   2004   2007   2010   2011     1  180.0000771  0.0000000  2
   2004   2007   2010   2012     1  180.0000771  0.0000000  2
   2015   2018   2021   2024     1  0.0000000  0.6508444  3
   2018   2021   2024   2025     1  180.0000771  2.0083200  2
   2018   2021   2024   2025     1  0.0000000  1.2552000  3
   2018   2021   2024   2035     1  180.0000771  2.0083200  2
   2018   2021   2024   2035     1  0.0000000  1.2552000  3
   2021   2024   2025   2028     1  180.0000771  2.0083200  2
   2021   2024   2025   2028     1  0.0000000  1.2552000  3
   2021   2024   2035   2038     1  180.0000771  2.0083200  2
   2021   2024   2035   2038     1  0.0000000  1.2552000  3
   2021   2018   2015   2045     1  0.0000000  0.6508444  3
   2024   2025   2028   2031     1  0.0000000  0.6508444  3
   2024   2035   2038   2041     1  0.0000000  0.6508444  3
   2025   2028   2031   2032     1  180.0000771  0.0000000  2
   2025   2028   2031   2033     1  180.0000771  0.0000000  2
   2025   2024   2035   2038     1  180.0000771  2.0083200  2
   2025   2024   2035   2038     1  0.0000000  1.2552000  3
   2028   2025   2024   2035     1  180.0000771  2.0083200  2
   2028   2025   2024   2035     1  0.0000000  1.2552000  3
   2035   2038   2041   2042     1  180.0000771  0.0000000  2
   2035   2038   2041   2043     1  180.0000771  0.0000000  2
   2046   2049   2052   2055     1  0.0000000  0.6508444  3
   2049   2052   2055   2056     1  180.0000771  2.0083200  2
   2049   2052   2055   2056     1  0.0000000  1.2552000  3
   2049   2052   2055   2066     1  180.0000771  2.0083200  2
   2049   2052   2055   2066     1  0.0000000  1.2552000  3
   2052   2049   2046   2076     1  0.0000000  0.6508444  3
   2052   2055   2056   2059     1  180.0000771  2.0083200  2
   2052   2055   2056   2059     1  0.0000000  1.2552000  3
   2052   2055   2066   2069     1  180.0000771  2.0083200  2
   2052   2055   2066   2069     1  0.0000000  1.2552000  3
   2055   2056   2059   2062     1  0.0000000  0.6508444  3
   2055   2066   2069   2072     1  0.0000000  0.6508444  3
   2056   2055   2066   2069     1  180.0000771  2.0083200  2
   2056   2055   2066   2069     1  0.0000000  1.2552000  3
   2056   2059   2062   2063     1  180.0000771  0.0000000  2
   2056   2059   2062   2064     1  180.0000771  0.0000000  2
   2059   2056   2055   2066     1  180.0000771  2.0083200  2
   2059   2056   2055   2066     1  0.0000000  1.2552000  3
   2066   2069   2072   2073     1  180.0000771  0.0000000  2
   2066   2069   2072   2074     1  180.0000771  0.0000000  2
   2077   2080   2083   2086     1  0.0000000  0.6508444  3
   2080   2083   2086   2087     1  180.0000771  2.0083200  2
   2080   2083   2086   2087     1  0.0000000  1.2552000  3
   2080   2083   2086   2097     1  180.0000771  2.0083200  2
   2080   2083   2086   2097     1  0.0000000  1.2552000  3
   2083   2086   2087   2090     1  180.0000771  2.0083200  2
   2083   2086   2087   2090     1  0.0000000  1.2552000  3
   2083   2086   2097   2100     1  180.0000771  2.0083200  2
   2083   2086   2097   2100     1  0.0000000  1.2552000  3
   2083   2080   2077   2107     1  0.0000000  0.6508444  3
   2086   2087   2090   2093     1  0.0000000  0.6508444  3
   2086   2097   2100   2103     1  0.0000000  0.6508444  3
   2087   2090   2093   2094     1  180.0000771  0.0000000  2
   2087   2090   2093   2095     1  180.0000771  0.0000000  2
   2087   2086   2097   2100     1  180.0000771  2.0083200  2
   2087   2086   2097   2100     1  0.0000000  1.2552000  3
   2090   2087   2086   2097     1  180.0000771  2.0083200  2
   2090   2087   2086   2097     1  0.0000000  1.2552000  3
   2097   2100   2103   2104     1  180.0000771  0.0000000  2
   2097   2100   2103   2105     1  180.0000771  0.0000000  2
   2108   2111   2114   2117     1  0.0000000  0.6508444  3
   2111   2114   2117   2118     1  180.0000771  2.0083200  2
   2111   2114   2117   2118     1  0.0000000  1.2552000  3
   2111   2114   2117   2128     1  180.0000771  2.0083200  2
   2111   2114   2117   2128     1  0.0000000  1.2552000  3
   2114   2111   2108   2138     1  0.0000000  0.6508444  3
   2114   2117   2118   2121     1  180.0000771  2.0083200  2
   2114   2117   2118   2121     1  0.0000000  1.2552000  3
   2114   2117   2128   2131     1  180.0000771  2.0083200  2
   2114   2117   2128   2131     1  0.0000000  1.2552000  3
   2117   2118   2121   2124     1  0.0000000  0.6508444  3
   2117   2128   2131   2134     1  0.0000000  0.6508444  3
   2118   2117   2128   2131     1  180.0000771  2.0083200  2
   2118   2117   2128   2131     1  0.0000000  1.2552000  3
   2118   2121   2124   2125     1  180.0000771  0.0000000  2
   2118   2121   2124   2126     1  180.0000771  0.0000000  2
   2121   2118   2117   2128     1  180.0000771  2.0083200  2
   2121   2118   2117   2128     1  0.0000000  1.2552000  3
   2128   2131   2134   2135     1  180.0000771  0.0000000  2
   2128   2131   2134   2136     1  180.0000771  0.0000000  2
   2139   2142   2145   2148     1  0.0000000  0.6508444  3
   2142   2145   2148   2149     1  180.0000771  2.0083200  2
   2142   2145   2148   2149     1  0.0000000  1.2552000  3
   2142   2145   2148   2159     1  180.0000771  2.0083200  2
   2142   2145   2148   2159     1  0.0000000  1.2552000  3
   2145   2148   2149   2152     1  180.0000771  2.0083200  2
   2145   2148   2149   2152     1  0.0000000  1.2552000  3
   2145   2148   2159   2162     1  180.0000771  2.0083200  2
   2145   2148   2159   2162     1  0.0000000  1.2552000  3
   2145   2142   2139   2169     1  0.0000000  0.6508444  3
   2148   2149   2152   2155     1  0.0000000  0.6508444  3
   2148   2159   2162   2165     1  0.0000000  0.6508444  3
   2149   2152   2155   2156     1  180.0000771  0.0000000  2
   2149   2152   2155   2157     1  180.0000771  0.0000000  2
   2149   2148   2159   2162     1  180.0000771  2.0083200  2
   2149   2148   2159   2162     1  0.0000000  1.2552000  3
   2152   2149   2148   2159     1  180.0000771  2.0083200  2
   2152   2149   2148   2159     1  0.0000000  1.2552000  3
   2159   2162   2165   2166     1  180.0000771  0.0000000  2
   2159   2162   2165   2167     1  180.0000771  0.0000000  2
   2170   2173   2176   2179     1  0.0000000  0.6508444  3
   2173   2176   2179   2180     1  180.0000771  2.0083200  2
   2173   2176   2179   2180     1  0.0000000  1.2552000  3
   2173   2176   2179   2190     1  180.0000771  2.0083200  2
   2173   2176   2179   2190     1  0.0000000  1.2552000  3
   2176   2173   2170   2200     1  0.0000000  0.6508444  3
   2176   2179   2180   2183     1  180.0000771  2.0083200  2
   2176   2179   2180   2183     1  0.0000000  1.2552000  3
   2176   2179   2190   2193     1  180.0000771  2.0083200  2
   2176   2179   2190   2193     1  0.0000000  1.2552000  3
   2179   2180   2183   2186     1  0.0000000  0.6508444  3
   2179   2190   2193   2196     1  0.0000000  0.6508444  3
   2180   2179   2190   2193     1  180.0000771  2.0083200  2
   2180   2179   2190   2193     1  0.0000000  1.2552000  3
   2180   2183   2186   2187     1  180.0000771  0.0000000  2
   2180   2183   2186   2188     1  180.0000771  0.0000000  2
   2183   2180   2179   2190     1  180.0000771  2.0083200  2
   2183   2180   2179   2190     1  0.0000000  1.2552000  3
   2190   2193   2196   2197     1  180.0000771  0.0000000  2
   2190   2193   2196   2198     1  180.0000771  0.0000000  2
   2201   2204   2207   2210     1  0.0000000  0.6508444  3
   2204   2207   2210   2211     1  180.0000771  2.0083200  2
   2204   2207   2210   2211     1  0.0000000  1.2552000  3
   2204   2207   2210   2221     1  180.0000771  2.0083200  2
   2204   2207   2210   2221     1  0.0000000  1.2552000  3
   2207   2210   2211   2214     1  180.0000771  2.0083200  2
   2207   2210   2211   2214     1  0.0000000  1.2552000  3
   2207   2210   2221   2224     1  180.0000771  2.0083200  2
   2207   2210   2221   2224     1  0.0000000  1.2552000  3
   2207   2204   2201   2231     1  0.0000000  0.6508444  3
   2210   2211   2214   2217     1  0.0000000  0.6508444  3
   2210   2221   2224   2227     1  0.0000000  0.6508444  3
   2211   2214   2217   2218     1  180.0000771  0.0000000  2
   2211   2214   2217   2219     1  180.0000771  0.0000000  2
   2211   2210   2221   2224     1  180.0000771  2.0083200  2
   2211   2210   2221   2224     1  0.0000000  1.2552000  3
   2214   2211   2210   2221     1  180.0000771  2.0083200  2
   2214   2211   2210   2221     1  0.0000000  1.2552000  3
   2221   2224   2227   2228     1  180.0000771  0.0000000  2
   2221   2224   2227   2229     1  180.0000771  0.0000000  2
   2232   2235   2238   2241     1  0.0000000  0.6508444  3
   2235   2238   2241   2242     1  180.0000771  2.0083200  2
   2235   2238   2241   2242     1  0.0000000  1.2552000  3
   2235   2238   2241   2252     1  180.0000771  2.0083200  2
   2235   2238   2241   2252     1  0.0000000  1.2552000  3
   2238   2235   2232   2262     1  0.0000000  0.6508444  3
   2238   2241   2242   2245     1  180.0000771  2.0083200  2
   2238   2241   2242   2245     1  0.0000000  1.2552000  3
   2238   2241   2252   2255     1  180.0000771  2.0083200  2
   2238   2241   2252   2255     1  0.0000000  1.2552000  3
   2241   2242   2245   2248     1  0.0000000  0.6508444  3
   2241   2252   2255   2258     1  0.0000000  0.6508444  3
   2242   2241   2252   2255     1  180.0000771  2.0083200  2
   2242   2241   2252   2255     1  0.0000000  1.2552000  3
   2242   2245   2248   2249     1  180.0000771  0.0000000  2
   2242   2245   2248   2250     1  180.0000771  0.0000000  2
   2245   2242   2241   2252     1  180.0000771  2.0083200  2
   2245   2242   2241   2252     1  0.0000000  1.2552000  3
   2252   2255   2258   2259     1  180.0000771  0.0000000  2
   2252   2255   2258   2260     1  180.0000771  0.0000000  2
   2263   2266   2269   2272     1  0.0000000  0.6508444  3
   2266   2269   2272   2273     1  180.0000771  2.0083200  2
   2266   2269   2272   2273     1  0.0000000  1.2552000  3
   2266   2269   2272   2283     1  180.0000771  2.0083200  2
   2266   2269   2272   2283     1  0.0000000  1.2552000  3
   2269   2272   2273   2276     1  180.0000771  2.0083200  2
   2269   2272   2273   2276     1  0.0000000  1.2552000  3
   2269   2272   2283   2286     1  180.0000771  2.0083200  2
   2269   2272   2283   2286     1  0.0000000  1.2552000  3
   2269   2266   2263   2293     1  0.0000000  0.6508444  3
   2272   2273   2276   2279     1  0.0000000  0.6508444  3
   2272   2283   2286   2289     1  0.0000000  0.6508444  3
   2273   2276   2279   2280     1  180.0000771  0.0000000  2
   2273   2276   2279   2281     1  180.0000771  0.0000000  2
   2273   2272   2283   2286     1  180.0000771  2.0083200  2
   2273   2272   2283   2286     1  0.0000000  1.2552000  3
   2276   2273   2272   2283     1  180.0000771  2.0083200  2
   2276   2273   2272   2283     1  0.0000000  1.2552000  3
   2283   2286   2289   2290     1  180.0000771  0.0000000  2
   2283   2286   2289   2291     1  180.0000771  0.0000000  2
   2294   2297   2300   2303     1  0.0000000  0.6508444  3
   2297   2300   2303   2304     1  180.0000771  2.0083200  2
   2297   2300   2303   2304     1  0.0000000  1.2552000  3
   2297   2300   2303   2314     1  180.0000771  2.0083200  2
   2297   2300   2303   2314     1  0.0000000  1.2552000  3
   2300   2297   2294   2324     1  0.0000000  0.6508444  3
   2300   2303   2304   2307     1  180.0000771  2.0083200  2
   2300   2303   2304   2307     1  0.0000000  1.2552000  3
   2300   2303   2314   2317     1  180.0000771  2.0083200  2
   2300   2303   2314   2317     1  0.0000000  1.2552000  3
   2303   2304   2307   2310     1  0.0000000  0.6508444  3
   2303   2314   2317   2320     1  0.0000000  0.6508444  3
   2304   2303   2314   2317     1  180.0000771  2.0083200  2
   2304   2303   2314   2317     1  0.0000000  1.2552000  3
   2304   2307   2310   2311     1  180.0000771  0.0000000  2
   2304   2307   2310   2312     1  180.0000771  0.0000000  2
   2307   2304   2303   2314     1  180.0000771  2.0083200  2
   2307   2304   2303   2314     1  0.0000000  1.2552000  3
   2314   2317   2320   2321     1  180.0000771  0.0000000  2
   2314   2317   2320   2322     1  180.0000771  0.0000000  2
   2325   2328   2331   2334     1  0.0000000  0.6508444  3
   2328   2331   2334   2335     1  180.0000771  2.0083200  2
   2328   2331   2334   2335     1  0.0000000  1.2552000  3
   2328   2331   2334   2345     1  180.0000771  2.0083200  2
   2328   2331   2334   2345     1  0.0000000  1.2552000  3
   2331   2334   2335   2338     1  180.0000771  2.0083200  2
   2331   2334   2335   2338     1  0.0000000  1.2552000  3
   2331   2334   2345   2348     1  180.0000771  2.0083200  2
   2331   2334   2345   2348     1  0.0000000  1.2552000  3
   2331   2328   2325   2355     1  0.0000000  0.6508444  3
   2334   2335   2338   2341     1  0.0000000  0.6508444  3
   2334   2345   2348   2351     1  0.0000000  0.6508444  3
   2335   2338   2341   2342     1  180.0000771  0.0000000  2
   2335   2338   2341   2343     1  180.0000771  0.0000000  2
   2335   2334   2345   2348     1  180.0000771  2.0083200  2
   2335   2334   2345   2348     1  0.0000000  1.2552000  3
   2338   2335   2334   2345     1  180.0000771  2.0083200  2
   2338   2335   2334   2345     1  0.0000000  1.2552000  3
   2345   2348   2351   2352     1  180.0000771  0.0000000  2
   2345   2348   2351   2353     1  180.0000771  0.0000000  2
   2356   2359   2362   2365     1  0.0000000  0.6508444  3
   2359   2362   2365   2366     1  180.0000771  2.0083200  2
   2359   2362   2365   2366     1  0.0000000  1.2552000  3
   2359   2362   2365   2376     1  180.0000771  2.0083200  2
   2359   2362   2365   2376     1  0.0000000  1.2552000  3
   2362   2359   2356   2386     1  0.0000000  0.6508444  3
   2362   2365   2366   2369     1  180.0000771  2.0083200  2
   2362   2365   2366   2369     1  0.0000000  1.2552000  3
   2362   2365   2376   2379     1  180.0000771  2.0083200  2
   2362   2365   2376   2379     1  0.0000000  1.2552000  3
   2365   2366   2369   2372     1  0.0000000  0.6508444  3
   2365   2376   2379   2382     1  0.0000000  0.6508444  3
   2366   2365   2376   2379     1  180.0000771  2.0083200  2
   2366   2365   2376   2379     1  0.0000000  1.2552000  3
   2366   2369   2372   2373     1  180.0000771  0.0000000  2
   2366   2369   2372   2374     1  180.0000771  0.0000000  2
   2369   2366   2365   2376     1  180.0000771  2.0083200  2
   2369   2366   2365   2376     1  0.0000000  1.2552000  3
   2376   2379   2382   2383     1  180.0000771  0.0000000  2
   2376   2379   2382   2384     1  180.0000771  0.0000000  2
   2387   2390   2393   2396     1  0.0000000  0.6508444  3
   2390   2393   2396   2397     1  180.0000771  2.0083200  2
   2390   2393   2396   2397     1  0.0000000  1.2552000  3
   2390   2393   2396   2407     1  180.0000771  2.0083200  2
   2390   2393   2396   2407     1  0.0000000  1.2552000  3
   2393   2396   2397   2400     1  180.0000771  2.0083200  2
   2393   2396   2397   2400     1  0.0000000  1.2552000  3
   2393   2396   2407   2410     1  180.0000771  2.0083200  2
   2393   2396   2407   2410     1  0.0000000  1.2552000  3
   2393   2390   2387   2417     1  0.0000000  0.6508444  3
   2396   2397   2400   2403     1  0.0000000  0.6508444  3
   2396   2407   2410   2413     1  0.0000000  0.6508444  3
   2397   2400   2403   2404     1  180.0000771  0.0000000  2
   2397   2400   2403   2405     1  180.0000771  0.0000000  2
   2397   2396   2407   2410     1  180.0000771  2.0083200  2
   2397   2396   2407   2410     1  0.0000000  1.2552000  3
   2400   2397   2396   2407     1  180.0000771  2.0083200  2
   2400   2397   2396   2407     1  0.0000000  1.2552000  3
   2407   2410   2413   2414     1  180.0000771  0.0000000  2
   2407   2410   2413   2415     1  180.0000771  0.0000000  2
   2418   2421   2424   2427     1  0.0000000  0.6508444  3
   2421   2424   2427   2428     1  180.0000771  2.0083200  2
   2421   2424   2427   2428     1  0.0000000  1.2552000  3
   2421   2424   2427   2438     1  180.0000771  2.0083200  2
   2421   2424   2427   2438     1  0.0000000  1.2552000  3
   2424   2421   2418   2448     1  0.0000000  0.6508444  3
   2424   2427   2428   2431     1  180.0000771  2.0083200  2
   2424   2427   2428   2431     1  0.0000000  1.2552000  3
   2424   2427   2438   2441     1  180.0000771  2.0083200  2
   2424   2427   2438   2441     1  0.0000000  1.2552000  3
   2427   2428   2431   2434     1  0.0000000  0.6508444  3
   2427   2438   2441   2444     1  0.0000000  0.6508444  3
   2428   2427   2438   2441     1  180.0000771  2.0083200  2
   2428   2427   2438   2441     1  0.0000000  1.2552000  3
   2428   2431   2434   2435     1  180.0000771  0.0000000  2
   2428   2431   2434   2436     1  180.0000771  0.0000000  2
   2431   2428   2427   2438     1  180.0000771  2.0083200  2
   2431   2428   2427   2438     1  0.0000000  1.2552000  3
   2438   2441   2444   2445     1  180.0000771  0.0000000  2
   2438   2441   2444   2446     1  180.0000771  0.0000000  2
   2449   2452   2455   2458     1  0.0000000  0.6508444  3
   2452   2455   2458   2459     1  180.0000771  2.0083200  2
   2452   2455   2458   2459     1  0.0000000  1.2552000  3
   2452   2455   2458   2469     1  180.0000771  2.0083200  2
   2452   2455   2458   2469     1  0.0000000  1.2552000  3
   2455   2458   2459   2462     1  180.0000771  2.0083200  2
   2455   2458   2459   2462     1  0.0000000  1.2552000  3
   2455   2458   2469   2472     1  180.0000771  2.0083200  2
   2455   2458   2469   2472     1  0.0000000  1.2552000  3
   2455   2452   2449   2479     1  0.0000000  0.6508444  3
   2458   2459   2462   2465     1  0.0000000  0.6508444  3
   2458   2469   2472   2475     1  0.0000000  0.6508444  3
   2459   2462   2465   2466     1  180.0000771  0.0000000  2
   2459   2462   2465   2467     1  180.0000771  0.0000000  2
   2459   2458   2469   2472     1  180.0000771  2.0083200  2
   2459   2458   2469   2472     1  0.0000000  1.2552000  3
   2462   2459   2458   2469     1  180.0000771  2.0083200  2
   2462   2459   2458   2469     1  0.0000000  1.2552000  3
   2469   2472   2475   2476     1  180.0000771  0.0000000  2
   2469   2472   2475   2477     1  180.0000771  0.0000000  2
   2480   2483   2486   2489     1  0.0000000  0.6508444  3
   2483   2486   2489   2490     1  180.0000771  2.0083200  2
   2483   2486   2489   2490     1  0.0000000  1.2552000  3
   2483   2486   2489   2500     1  180.0000771  2.0083200  2
   2483   2486   2489   2500     1  0.0000000  1.2552000  3
   2486   2483   2480   2510     1  0.0000000  0.6508444  3
   2486   2489   2490   2493     1  180.0000771  2.0083200  2
   2486   2489   2490   2493     1  0.0000000  1.2552000  3
   2486   2489   2500   2503     1  180.0000771  2.0083200  2
   2486   2489   2500   2503     1  0.0000000  1.2552000  3
   2489   2490   2493   2496     1  0.0000000  0.6508444  3
   2489   2500   2503   2506     1  0.0000000  0.6508444  3
   2490   2489   2500   2503     1  180.0000771  2.0083200  2
   2490   2489   2500   2503     1  0.0000000  1.2552000  3
   2490   2493   2496   2497     1  180.0000771  0.0000000  2
   2490   2493   2496   2498     1  180.0000771  0.0000000  2
   2493   2490   2489   2500     1  180.0000771  2.0083200  2
   2493   2490   2489   2500     1  0.0000000  1.2552000  3
   2500   2503   2506   2507     1  180.0000771  0.0000000  2
   2500   2503   2506   2508     1  180.0000771  0.0000000  2
   2511   2514   2517   2520     1  0.0000000  0.6508444  3
   2514   2517   2520   2521     1  180.0000771  2.0083200  2
   2514   2517   2520   2521     1  0.0000000  1.2552000  3
   2514   2517   2520   2531     1  180.0000771  2.0083200  2
   2514   2517   2520   2531     1  0.0000000  1.2552000  3
   2517   2520   2521   2524     1  180.0000771  2.0083200  2
   2517   2520   2521   2524     1  0.0000000  1.2552000  3
   2517   2520   2531   2534     1  180.0000771  2.0083200  2
   2517   2520   2531   2534     1  0.0000000  1.2552000  3
   2517   2514   2511   2541     1  0.0000000  0.6508444  3
   2520   2521   2524   2527     1  0.0000000  0.6508444  3
   2520   2531   2534   2537     1  0.0000000  0.6508444  3
   2521   2524   2527   2528     1  180.0000771  0.0000000  2
   2521   2524   2527   2529     1  180.0000771  0.0000000  2
   2521   2520   2531   2534     1  180.0000771  2.0083200  2
   2521   2520   2531   2534     1  0.0000000  1.2552000  3
   2524   2521   2520   2531     1  180.0000771  2.0083200  2
   2524   2521   2520   2531     1  0.0000000  1.2552000  3
   2531   2534   2537   2538     1  180.0000771  0.0000000  2
   2531   2534   2537   2539     1  180.0000771  0.0000000  2
   2542   2545   2548   2551     1  0.0000000  0.6508444  3
   2545   2548   2551   2552     1  180.0000771  2.0083200  2
   2545   2548   2551   2552     1  0.0000000  1.2552000  3
   2545   2548   2551   2562     1  180.0000771  2.0083200  2
   2545   2548   2551   2562     1  0.0000000  1.2552000  3
   2548   2545   2542   2572     1  0.0000000  0.6508444  3
   2548   2551   2552   2555     1  180.0000771  2.0083200  2
   2548   2551   2552   2555     1  0.0000000  1.2552000  3
   2548   2551   2562   2565     1  180.0000771  2.0083200  2
   2548   2551   2562   2565     1  0.0000000  1.2552000  3
   2551   2552   2555   2558     1  0.0000000  0.6508444  3
   2551   2562   2565   2568     1  0.0000000  0.6508444  3
   2552   2551   2562   2565     1  180.0000771  2.0083200  2
   2552   2551   2562   2565     1  0.0000000  1.2552000  3
   2552   2555   2558   2559     1  180.0000771  0.0000000  2
   2552   2555   2558   2560     1  180.0000771  0.0000000  2
   2555   2552   2551   2562     1  180.0000771  2.0083200  2
   2555   2552   2551   2562     1  0.0000000  1.2552000  3
   2562   2565   2568   2569     1  180.0000771  0.0000000  2
   2562   2565   2568   2570     1  180.0000771  0.0000000  2
   2573   2576   2579   2582     1  0.0000000  0.6508444  3
   2576   2579   2582   2583     1  180.0000771  2.0083200  2
   2576   2579   2582   2583     1  0.0000000  1.2552000  3
   2576   2579   2582   2593     1  180.0000771  2.0083200  2
   2576   2579   2582   2593     1  0.0000000  1.2552000  3
   2579   2582   2583   2586     1  180.0000771  2.0083200  2
   2579   2582   2583   2586     1  0.0000000  1.2552000  3
   2579   2582   2593   2596     1  180.0000771  2.0083200  2
   2579   2582   2593   2596     1  0.0000000  1.2552000  3
   2579   2576   2573   2603     1  0.0000000  0.6508444  3
   2582   2583   2586   2589     1  0.0000000  0.6508444  3
   2582   2593   2596   2599     1  0.0000000  0.6508444  3
   2583   2586   2589   2590     1  180.0000771  0.0000000  2
   2583   2586   2589   2591     1  180.0000771  0.0000000  2
   2583   2582   2593   2596     1  180.0000771  2.0083200  2
   2583   2582   2593   2596     1  0.0000000  1.2552000  3
   2586   2583   2582   2593     1  180.0000771  2.0083200  2
   2586   2583   2582   2593     1  0.0000000  1.2552000  3
   2593   2596   2599   2600     1  180.0000771  0.0000000  2
   2593   2596   2599   2601     1  180.0000771  0.0000000  2
   2604   2607   2610   2613     1  0.0000000  0.6508444  3
   2607   2610   2613   2614     1  180.0000771  2.0083200  2
   2607   2610   2613   2614     1  0.0000000  1.2552000  3
   2607   2610   2613   2624     1  180.0000771  2.0083200  2
   2607   2610   2613   2624     1  0.0000000  1.2552000  3
   2610   2607   2604   2634     1  0.0000000  0.6508444  3
   2610   2613   2614   2617     1  180.0000771  2.0083200  2
   2610   2613   2614   2617     1  0.0000000  1.2552000  3
   2610   2613   2624   2627     1  180.0000771  2.0083200  2
   2610   2613   2624   2627     1  0.0000000  1.2552000  3
   2613   2614   2617   2620     1  0.0000000  0.6508444  3
   2613   2624   2627   2630     1  0.0000000  0.6508444  3
   2614   2613   2624   2627     1  180.0000771  2.0083200  2
   2614   2613   2624   2627     1  0.0000000  1.2552000  3
   2614   2617   2620   2621     1  180.0000771  0.0000000  2
   2614   2617   2620   2622     1  180.0000771  0.0000000  2
   2617   2614   2613   2624     1  180.0000771  2.0083200  2
   2617   2614   2613   2624     1  0.0000000  1.2552000  3
   2624   2627   2630   2631     1  180.0000771  0.0000000  2
   2624   2627   2630   2632     1  180.0000771  0.0000000  2
   2635   2638   2641   2644     1  0.0000000  0.6508444  3
   2638   2641   2644   2645     1  180.0000771  2.0083200  2
   2638   2641   2644   2645     1  0.0000000  1.2552000  3
   2638   2641   2644   2655     1  180.0000771  2.0083200  2
   2638   2641   2644   2655     1  0.0000000  1.2552000  3
   2641   2644   2645   2648     1  180.0000771  2.0083200  2
   2641   2644   2645   2648     1  0.0000000  1.2552000  3
   2641   2644   2655   2658     1  180.0000771  2.0083200  2
   2641   2644   2655   2658     1  0.0000000  1.2552000  3
   2641   2638   2635   2665     1  0.0000000  0.6508444  3
   2644   2645   2648   2651     1  0.0000000  0.6508444  3
   2644   2655   2658   2661     1  0.0000000  0.6508444  3
   2645   2648   2651   2652     1  180.0000771  0.0000000  2
   2645   2648   2651   2653     1  180.0000771  0.0000000  2
   2645   2644   2655   2658     1  180.0000771  2.0083200  2
   2645   2644   2655   2658     1  0.0000000  1.2552000  3
   2648   2645   2644   2655     1  180.0000771  2.0083200  2
   2648   2645   2644   2655     1  0.0000000  1.2552000  3
   2655   2658   2661   2662     1  180.0000771  0.0000000  2
   2655   2658   2661   2663     1  180.0000771  0.0000000  2
   2666   2669   2672   2675     1  0.0000000  0.6508444  3
   2669   2672   2675   2676     1  180.0000771  2.0083200  2
   2669   2672   2675   2676     1  0.0000000  1.2552000  3
   2669   2672   2675   2686     1  180.0000771  2.0083200  2
   2669   2672   2675   2686     1  0.0000000  1.2552000  3
   2672   2669   2666   2696     1  0.0000000  0.6508444  3
   2672   2675   2676   2679     1  180.0000771  2.0083200  2
   2672   2675   2676   2679     1  0.0000000  1.2552000  3
   2672   2675   2686   2689     1  180.0000771  2.0083200  2
   2672   2675   2686   2689     1  0.0000000  1.2552000  3
   2675   2676   2679   2682     1  0.0000000  0.6508444  3
   2675   2686   2689   2692     1  0.0000000  0.6508444  3
   2676   2675   2686   2689     1  180.0000771  2.0083200  2
   2676   2675   2686   2689     1  0.0000000  1.2552000  3
   2676   2679   2682   2683     1  180.0000771  0.0000000  2
   2676   2679   2682   2684     1  180.0000771  0.0000000  2
   2679   2676   2675   2686     1  180.0000771  2.0083200  2
   2679   2676   2675   2686     1  0.0000000  1.2552000  3
   2686   2689   2692   2693     1  180.0000771  0.0000000  2
   2686   2689   2692   2694     1  180.0000771  0.0000000  2
   2697   2700   2703   2706     1  0.0000000  0.6508444  3
   2700   2703   2706   2707     1  180.0000771  2.0083200  2
   2700   2703   2706   2707     1  0.0000000  1.2552000  3
   2700   2703   2706   2717     1  180.0000771  2.0083200  2
   2700   2703   2706   2717     1  0.0000000  1.2552000  3
   2703   2706   2707   2710     1  180.0000771  2.0083200  2
   2703   2706   2707   2710     1  0.0000000  1.2552000  3
   2703   2706   2717   2720     1  180.0000771  2.0083200  2
   2703   2706   2717   2720     1  0.0000000  1.2552000  3
   2703   2700   2697   2727     1  0.0000000  0.6508444  3
   2706   2707   2710   2713     1  0.0000000  0.6508444  3
   2706   2717   2720   2723     1  0.0000000  0.6508444  3
   2707   2710   2713   2714     1  180.0000771  0.0000000  2
   2707   2710   2713   2715     1  180.0000771  0.0000000  2
   2707   2706   2717   2720     1  180.0000771  2.0083200  2
   2707   2706   2717   2720     1  0.0000000  1.2552000  3
   2710   2707   2706   2717     1  180.0000771  2.0083200  2
   2710   2707   2706   2717     1  0.0000000  1.2552000  3
   2717   2720   2723   2724     1  180.0000771  0.0000000  2
   2717   2720   2723   2725     1  180.0000771  0.0000000  2
   2728   2731   2734   2737     1  0.0000000  0.6508444  3
   2731   2734   2737   2738     1  180.0000771  2.0083200  2
   2731   2734   2737   2738     1  0.0000000  1.2552000  3
   2731   2734   2737   2748     1  180.0000771  2.0083200  2
   2731   2734   2737   2748     1  0.0000000  1.2552000  3
   2734   2731   2728   2758     1  0.0000000  0.6508444  3
   2734   2737   2738   2741     1  180.0000771  2.0083200  2
   2734   2737   2738   2741     1  0.0000000  1.2552000  3
   2734   2737   2748   2751     1  180.0000771  2.0083200  2
   2734   2737   2748   2751     1  0.0000000  1.2552000  3
   2737   2738   2741   2744     1  0.0000000  0.6508444  3
   2737   2748   2751   2754     1  0.0000000  0.6508444  3
   2738   2737   2748   2751     1  180.0000771  2.0083200  2
   2738   2737   2748   2751     1  0.0000000  1.2552000  3
   2738   2741   2744   2745     1  180.0000771  0.0000000  2
   2738   2741   2744   2746     1  180.0000771  0.0000000  2
   2741   2738   2737   2748     1  180.0000771  2.0083200  2
   2741   2738   2737   2748     1  0.0000000  1.2552000  3
   2748   2751   2754   2755     1  180.0000771  0.0000000  2
   2748   2751   2754   2756     1  180.0000771  0.0000000  2
   2759   2762   2765   2768     1  0.0000000  0.6508444  3
   2762   2765   2768   2769     1  180.0000771  2.0083200  2
   2762   2765   2768   2769     1  0.0000000  1.2552000  3
   2762   2765   2768   2779     1  180.0000771  2.0083200  2
   2762   2765   2768   2779     1  0.0000000  1.2552000  3
   2765   2768   2769   2772     1  180.0000771  2.0083200  2
   2765   2768   2769   2772     1  0.0000000  1.2552000  3
   2765   2768   2779   2782     1  180.0000771  2.0083200  2
   2765   2768   2779   2782     1  0.0000000  1.2552000  3
   2765   2762   2759   2789     1  0.0000000  0.6508444  3
   2768   2769   2772   2775     1  0.0000000  0.6508444  3
   2768   2779   2782   2785     1  0.0000000  0.6508444  3
   2769   2772   2775   2776     1  180.0000771  0.0000000  2
   2769   2772   2775   2777     1  180.0000771  0.0000000  2
   2769   2768   2779   2782     1  180.0000771  2.0083200  2
   2769   2768   2779   2782     1  0.0000000  1.2552000  3
   2772   2769   2768   2779     1  180.0000771  2.0083200  2
   2772   2769   2768   2779     1  0.0000000  1.2552000  3
   2779   2782   2785   2786     1  180.0000771  0.0000000  2
   2779   2782   2785   2787     1  180.0000771  0.0000000  2
   2790   2793   2796   2799     1  0.0000000  0.6508444  3
   2793   2796   2799   2800     1  180.0000771  2.0083200  2
   2793   2796   2799   2800     1  0.0000000  1.2552000  3
   2793   2796   2799   2810     1  180.0000771  2.0083200  2
   2793   2796   2799   2810     1  0.0000000  1.2552000  3
   2796   2793   2790   2820     1  0.0000000  0.6508444  3
   2796   2799   2800   2803     1  180.0000771  2.0083200  2
   2796   2799   2800   2803     1  0.0000000  1.2552000  3
   2796   2799   2810   2813     1  180.0000771  2.0083200  2
   2796   2799   2810   2813     1  0.0000000  1.2552000  3
   2799   2800   2803   2806     1  0.0000000  0.6508444  3
   2799   2810   2813   2816     1  0.0000000  0.6508444  3
   2800   2799   2810   2813     1  180.0000771  2.0083200  2
   2800   2799   2810   2813     1  0.0000000  1.2552000  3
   2800   2803   2806   2807     1  180.0000771  0.0000000  2
   2800   2803   2806   2808     1  180.0000771  0.0000000  2
   2803   2800   2799   2810     1  180.0000771  2.0083200  2
   2803   2800   2799   2810     1  0.0000000  1.2552000  3
   2810   2813   2816   2817     1  180.0000771  0.0000000  2
   2810   2813   2816   2818     1  180.0000771  0.0000000  2
   2821   2824   2827   2830     1  0.0000000  0.6508444  3
   2824   2827   2830   2831     1  180.0000771  2.0083200  2
   2824   2827   2830   2831     1  0.0000000  1.2552000  3
   2824   2827   2830   2841     1  180.0000771  2.0083200  2
   2824   2827   2830   2841     1  0.0000000  1.2552000  3
   2827   2830   2831   2834     1  180.0000771  2.0083200  2
   2827   2830   2831   2834     1  0.0000000  1.2552000  3
   2827   2830   2841   2844     1  180.0000771  2.0083200  2
   2827   2830   2841   2844     1  0.0000000  1.2552000  3
   2827   2824   2821   2851     1  0.0000000  0.6508444  3
   2830   2831   2834   2837     1  0.0000000  0.6508444  3
   2830   2841   2844   2847     1  0.0000000  0.6508444  3
   2831   2834   2837   2838     1  180.0000771  0.0000000  2
   2831   2834   2837   2839     1  180.0000771  0.0000000  2
   2831   2830   2841   2844     1  180.0000771  2.0083200  2
   2831   2830   2841   2844     1  0.0000000  1.2552000  3
   2834   2831   2830   2841     1  180.0000771  2.0083200  2
   2834   2831   2830   2841     1  0.0000000  1.2552000  3
   2841   2844   2847   2848     1  180.0000771  0.0000000  2
   2841   2844   2847   2849     1  180.0000771  0.0000000  2
   2852   2855   2858   2861     1  0.0000000  0.6508444  3
   2855   2858   2861   2862     1  180.0000771  2.0083200  2
   2855   2858   2861   2862     1  0.0000000  1.2552000  3
   2855   2858   2861   2872     1  180.0000771  2.0083200  2
   2855   2858   2861   2872     1  0.0000000  1.2552000  3
   2858   2855   2852   2882     1  0.0000000  0.6508444  3
   2858   2861   2862   2865     1  180.0000771  2.0083200  2
   2858   2861   2862   2865     1  0.0000000  1.2552000  3
   2858   2861   2872   2875     1  180.0000771  2.0083200  2
   2858   2861   2872   2875     1  0.0000000  1.2552000  3
   2861   2862   2865   2868     1  0.0000000  0.6508444  3
   2861   2872   2875   2878     1  0.0000000  0.6508444  3
   2862   2861   2872   2875     1  180.0000771  2.0083200  2
   2862   2861   2872   2875     1  0.0000000  1.2552000  3
   2862   2865   2868   2869     1  180.0000771  0.0000000  2
   2862   2865   2868   2870     1  180.0000771  0.0000000  2
   2865   2862   2861   2872     1  180.0000771  2.0083200  2
   2865   2862   2861   2872     1  0.0000000  1.2552000  3
   2872   2875   2878   2879     1  180.0000771  0.0000000  2
   2872   2875   2878   2880     1  180.0000771  0.0000000  2
   2883   2886   2889   2892     1  0.0000000  0.6508444  3
   2886   2889   2892   2893     1  180.0000771  2.0083200  2
   2886   2889   2892   2893     1  0.0000000  1.2552000  3
   2886   2889   2892   2903     1  180.0000771  2.0083200  2
   2886   2889   2892   2903     1  0.0000000  1.2552000  3
   2889   2892   2893   2896     1  180.0000771  2.0083200  2
   2889   2892   2893   2896     1  0.0000000  1.2552000  3
   2889   2892   2903   2906     1  180.0000771  2.0083200  2
   2889   2892   2903   2906     1  0.0000000  1.2552000  3
   2889   2886   2883   2913     1  0.0000000  0.6508444  3
   2892   2893   2896   2899     1  0.0000000  0.6508444  3
   2892   2903   2906   2909     1  0.0000000  0.6508444  3
   2893   2896   2899   2900     1  180.0000771  0.0000000  2
   2893   2896   2899   2901     1  180.0000771  0.0000000  2
   2893   2892   2903   2906     1  180.0000771  2.0083200  2
   2893   2892   2903   2906     1  0.0000000  1.2552000  3
   2896   2893   2892   2903     1  180.0000771  2.0083200  2
   2896   2893   2892   2903     1  0.0000000  1.2552000  3
   2903   2906   2909   2910     1  180.0000771  0.0000000  2
   2903   2906   2909   2911     1  180.0000771  0.0000000  2
   2914   2917   2920   2923     1  0.0000000  0.6508444  3
   2917   2920   2923   2924     1  180.0000771  2.0083200  2
   2917   2920   2923   2924     1  0.0000000  1.2552000  3
   2917   2920   2923   2934     1  180.0000771  2.0083200  2
   2917   2920   2923   2934     1  0.0000000  1.2552000  3
   2920   2917   2914   2944     1  0.0000000  0.6508444  3
   2920   2923   2924   2927     1  180.0000771  2.0083200  2
   2920   2923   2924   2927     1  0.0000000  1.2552000  3
   2920   2923   2934   2937     1  180.0000771  2.0083200  2
   2920   2923   2934   2937     1  0.0000000  1.2552000  3
   2923   2924   2927   2930     1  0.0000000  0.6508444  3
   2923   2934   2937   2940     1  0.0000000  0.6508444  3
   2924   2923   2934   2937     1  180.0000771  2.0083200  2
   2924   2923   2934   2937     1  0.0000000  1.2552000  3
   2924   2927   2930   2931     1  180.0000771  0.0000000  2
   2924   2927   2930   2932     1  180.0000771  0.0000000  2
   2927   2924   2923   2934     1  180.0000771  2.0083200  2
   2927   2924   2923   2934     1  0.0000000  1.2552000  3
   2934   2937   2940   2941     1  180.0000771  0.0000000  2
   2934   2937   2940   2942     1  180.0000771  0.0000000  2
   2945   2948   2951   2954     1  0.0000000  0.6508444  3
   2948   2951   2954   2955     1  180.0000771  2.0083200  2
   2948   2951   2954   2955     1  0.0000000  1.2552000  3
   2948   2951   2954   2965     1  180.0000771  2.0083200  2
   2948   2951   2954   2965     1  0.0000000  1.2552000  3
   2951   2954   2955   2958     1  180.0000771  2.0083200  2
   2951   2954   2955   2958     1  0.0000000  1.2552000  3
   2951   2954   2965   2968     1  180.0000771  2.0083200  2
   2951   2954   2965   2968     1  0.0000000  1.2552000  3
   2951   2948   2945   2975     1  0.0000000  0.6508444  3
   2954   2955   2958   2961     1  0.0000000  0.6508444  3
   2954   2965   2968   2971     1  0.0000000  0.6508444  3
   2955   2958   2961   2962     1  180.0000771  0.0000000  2
   2955   2958   2961   2963     1  180.0000771  0.0000000  2
   2955   2954   2965   2968     1  180.0000771  2.0083200  2
   2955   2954   2965   2968     1  0.0000000  1.2552000  3
   2958   2955   2954   2965     1  180.0000771  2.0083200  2
   2958   2955   2954   2965     1  0.0000000  1.2552000  3
   2965   2968   2971   2972     1  180.0000771  0.0000000  2
   2965   2968   2971   2973     1  180.0000771  0.0000000  2
   2976   2979   2982   2985     1  0.0000000  0.6508444  3
   2979   2982   2985   2986     1  180.0000771  2.0083200  2
   2979   2982   2985   2986     1  0.0000000  1.2552000  3
   2979   2982   2985   2996     1  180.0000771  2.0083200  2
   2979   2982   2985   2996     1  0.0000000  1.2552000  3
   2982   2979   2976   3006     1  0.0000000  0.6508444  3
   2982   2985   2986   2989     1  180.0000771  2.0083200  2
   2982   2985   2986   2989     1  0.0000000  1.2552000  3
   2982   2985   2996   2999     1  180.0000771  2.0083200  2
   2982   2985   2996   2999     1  0.0000000  1.2552000  3
   2985   2986   2989   2992     1  0.0000000  0.6508444  3
   2985   2996   2999   3002     1  0.0000000  0.6508444  3
   2986   2985   2996   2999     1  180.0000771  2.0083200  2
   2986   2985   2996   2999     1  0.0000000  1.2552000  3
   2986   2989   2992   2993     1  180.0000771  0.0000000  2
   2986   2989   2992   2994     1  180.0000771  0.0000000  2
   2989   2986   2985   2996     1  180.0000771  2.0083200  2
   2989   2986   2985   2996     1  0.0000000  1.2552000  3
   2996   2999   3002   3003     1  180.0000771  0.0000000  2
   2996   2999   3002   3004     1  180.0000771  0.0000000  2
   3007   3010   3013   3016     1  0.0000000  0.6508444  3
   3010   3013   3016   3017     1  180.0000771  2.0083200  2
   3010   3013   3016   3017     1  0.0000000  1.2552000  3
   3010   3013   3016   3027     1  180.0000771  2.0083200  2
   3010   3013   3016   3027     1  0.0000000  1.2552000  3
   3013   3016   3017   3020     1  180.0000771  2.0083200  2
   3013   3016   3017   3020     1  0.0000000  1.2552000  3
   3013   3016   3027   3030     1  180.0000771  2.0083200  2
   3013   3016   3027   3030     1  0.0000000  1.2552000  3
   3013   3010   3007   3037     1  0.0000000  0.6508444  3
   3016   3017   3020   3023     1  0.0000000  0.6508444  3
   3016   3027   3030   3033     1  0.0000000  0.6508444  3
   3017   3020   3023   3024     1  180.0000771  0.0000000  2
   3017   3020   3023   3025     1  180.0000771  0.0000000  2
   3017   3016   3027   3030     1  180.0000771  2.0083200  2
   3017   3016   3027   3030     1  0.0000000  1.2552000  3
   3020   3017   3016   3027     1  180.0000771  2.0083200  2
   3020   3017   3016   3027     1  0.0000000  1.2552000  3
   3027   3030   3033   3034     1  180.0000771  0.0000000  2
   3027   3030   3033   3035     1  180.0000771  0.0000000  2
   3038   3041   3044   3047     1  0.0000000  0.6508444  3
   3041   3044   3047   3048     1  180.0000771  2.0083200  2
   3041   3044   3047   3048     1  0.0000000  1.2552000  3
   3041   3044   3047   3058     1  180.0000771  2.0083200  2
   3041   3044   3047   3058     1  0.0000000  1.2552000  3
   3044   3041   3038   3068     1  0.0000000  0.6508444  3
   3044   3047   3048   3051     1  180.0000771  2.0083200  2
   3044   3047   3048   3051     1  0.0000000  1.2552000  3
   3044   3047   3058   3061     1  180.0000771  2.0083200  2
   3044   3047   3058   3061     1  0.0000000  1.2552000  3
   3047   3048   3051   3054     1  0.0000000  0.6508444  3
   3047   3058   3061   3064     1  0.0000000  0.6508444  3
   3048   3047   3058   3061     1  180.0000771  2.0083200  2
   3048   3047   3058   3061     1  0.0000000  1.2552000  3
   3048   3051   3054   3055     1  180.0000771  0.0000000  2
   3048   3051   3054   3056     1  180.0000771  0.0000000  2
   3051   3048   3047   3058     1  180.0000771  2.0083200  2
   3051   3048   3047   3058     1  0.0000000  1.2552000  3
   3058   3061   3064   3065     1  180.0000771  0.0000000  2
   3058   3061   3064   3066     1  180.0000771  0.0000000  2
   3069   3072   3075   3078     1  0.0000000  0.6508444  3
   3072   3075   3078   3079     1  180.0000771  2.0083200  2
   3072   3075   3078   3079     1  0.0000000  1.2552000  3
   3072   3075   3078   3089     1  180.0000771  2.0083200  2
   3072   3075   3078   3089     1  0.0000000  1.2552000  3
   3075   3078   3079   3082     1  180.0000771  2.0083200  2
   3075   3078   3079   3082     1  0.0000000  1.2552000  3
   3075   3078   3089   3092     1  180.0000771  2.0083200  2
   3075   3078   3089   3092     1  0.0000000  1.2552000  3
   3075   3072   3069   3099     1  0.0000000  0.6508444  3
   3078   3079   3082   3085     1  0.0000000  0.6508444  3
   3078   3089   3092   3095     1  0.0000000  0.6508444  3
   3079   3082   3085   3086     1  180.0000771  0.0000000  2
   3079   3082   3085   3087     1  180.0000771  0.0000000  2
   3079   3078   3089   3092     1  180.0000771  2.0083200  2
   3079   3078   3089   3092     1  0.0000000  1.2552000  3
   3082   3079   3078   3089     1  180.0000771  2.0083200  2
   3082   3079   3078   3089     1  0.0000000  1.2552000  3
   3089   3092   3095   3096     1  180.0000771  0.0000000  2
   3089   3092   3095   3097     1  180.0000771  0.0000000  2
   3100   3103   3106   3109     1  0.0000000  0.6508444  3
   3103   3106   3109   3110     1  180.0000771  2.0083200  2
   3103   3106   3109   3110     1  0.0000000  1.2552000  3
   3103   3106   3109   3120     1  180.0000771  2.0083200  2
   3103   3106   3109   3120     1  0.0000000  1.2552000  3
   3106   3103   3100   3130     1  0.0000000  0.6508444  3
   3106   3109   3110   3113     1  180.0000771  2.0083200  2
   3106   3109   3110   3113     1  0.0000000  1.2552000  3
   3106   3109   3120   3123     1  180.0000771  2.0083200  2
   3106   3109   3120   3123     1  0.0000000  1.2552000  3
   3109   3110   3113   3116     1  0.0000000  0.6508444  3
   3109   3120   3123   3126     1  0.0000000  0.6508444  3
   3110   3109   3120   3123     1  180.0000771  2.0083200  2
   3110   3109   3120   3123     1  0.0000000  1.2552000  3
   3110   3113   3116   3117     1  180.0000771  0.0000000  2
   3110   3113   3116   3118     1  180.0000771  0.0000000  2
   3113   3110   3109   3120     1  180.0000771  2.0083200  2
   3113   3110   3109   3120     1  0.0000000  1.2552000  3
   3120   3123   3126   3127     1  180.0000771  0.0000000  2
   3120   3123   3126   3128     1  180.0000771  0.0000000  2
   3131   3134   3137   3140     1  0.0000000  0.6508444  3
   3134   3137   3140   3141     1  180.0000771  2.0083200  2
   3134   3137   3140   3141     1  0.0000000  1.2552000  3
   3134   3137   3140   3151     1  180.0000771  2.0083200  2
   3134   3137   3140   3151     1  0.0000000  1.2552000  3
   3137   3140   3141   3144     1  180.0000771  2.0083200  2
   3137   3140   3141   3144     1  0.0000000  1.2552000  3
   3137   3140   3151   3154     1  180.0000771  2.0083200  2
   3137   3140   3151   3154     1  0.0000000  1.2552000  3
   3137   3134   3131   3161     1  0.0000000  0.6508444  3
   3140   3141   3144   3147     1  0.0000000  0.6508444  3
   3140   3151   3154   3157     1  0.0000000  0.6508444  3
   3141   3144   3147   3148     1  180.0000771  0.0000000  2
   3141   3144   3147   3149     1  180.0000771  0.0000000  2
   3141   3140   3151   3154     1  180.0000771  2.0083200  2
   3141   3140   3151   3154     1  0.0000000  1.2552000  3
   3144   3141   3140   3151     1  180.0000771  2.0083200  2
   3144   3141   3140   3151     1  0.0000000  1.2552000  3
   3151   3154   3157   3158     1  180.0000771  0.0000000  2
   3151   3154   3157   3159     1  180.0000771  0.0000000  2
   3162   3165   3168   3171     1  0.0000000  0.6508444  3
   3165   3168   3171   3172     1  180.0000771  2.0083200  2
   3165   3168   3171   3172     1  0.0000000  1.2552000  3
   3165   3168   3171   3182     1  180.0000771  2.0083200  2
   3165   3168   3171   3182     1  0.0000000  1.2552000  3
   3168   3165   3162   3192     1  0.0000000  0.6508444  3
   3168   3171   3172   3175     1  180.0000771  2.0083200  2
   3168   3171   3172   3175     1  0.0000000  1.2552000  3
   3168   3171   3182   3185     1  180.0000771  2.0083200  2
   3168   3171   3182   3185     1  0.0000000  1.2552000  3
   3171   3172   3175   3178     1  0.0000000  0.6508444  3
   3171   3182   3185   3188     1  0.0000000  0.6508444  3
   3172   3171   3182   3185     1  180.0000771  2.0083200  2
   3172   3171   3182   3185     1  0.0000000  1.2552000  3
   3172   3175   3178   3179     1  180.0000771  0.0000000  2
   3172   3175   3178   3180     1  180.0000771  0.0000000  2
   3175   3172   3171   3182     1  180.0000771  2.0083200  2
   3175   3172   3171   3182     1  0.0000000  1.2552000  3
   3182   3185   3188   3189     1  180.0000771  0.0000000  2
   3182   3185   3188   3190     1  180.0000771  0.0000000  2
   3193   3196   3199   3202     1  0.0000000  0.6508444  3
   3196   3199   3202   3203     1  180.0000771  2.0083200  2
   3196   3199   3202   3203     1  0.0000000  1.2552000  3
   3196   3199   3202   3213     1  180.0000771  2.0083200  2
   3196   3199   3202   3213     1  0.0000000  1.2552000  3
   3199   3202   3203   3206     1  180.0000771  2.0083200  2
   3199   3202   3203   3206     1  0.0000000  1.2552000  3
   3199   3202   3213   3216     1  180.0000771  2.0083200  2
   3199   3202   3213   3216     1  0.0000000  1.2552000  3
   3199   3196   3193   3223     1  0.0000000  0.6508444  3
   3202   3203   3206   3209     1  0.0000000  0.6508444  3
   3202   3213   3216   3219     1  0.0000000  0.6508444  3
   3203   3206   3209   3210     1  180.0000771  0.0000000  2
   3203   3206   3209   3211     1  180.0000771  0.0000000  2
   3203   3202   3213   3216     1  180.0000771  2.0083200  2
   3203   3202   3213   3216     1  0.0000000  1.2552000  3
   3206   3203   3202   3213     1  180.0000771  2.0083200  2
   3206   3203   3202   3213     1  0.0000000  1.2552000  3
   3213   3216   3219   3220     1  180.0000771  0.0000000  2
   3213   3216   3219   3221     1  180.0000771  0.0000000  2
   3224   3227   3230   3233     1  0.0000000  0.6508444  3
   3227   3230   3233   3234     1  180.0000771  2.0083200  2
   3227   3230   3233   3234     1  0.0000000  1.2552000  3
   3227   3230   3233   3244     1  180.0000771  2.0083200  2
   3227   3230   3233   3244     1  0.0000000  1.2552000  3
   3230   3227   3224   3254     1  0.0000000  0.6508444  3
   3230   3233   3234   3237     1  180.0000771  2.0083200  2
   3230   3233   3234   3237     1  0.0000000  1.2552000  3
   3230   3233   3244   3247     1  180.0000771  2.0083200  2
   3230   3233   3244   3247     1  0.0000000  1.2552000  3
   3233   3234   3237   3240     1  0.0000000  0.6508444  3
   3233   3244   3247   3250     1  0.0000000  0.6508444  3
   3234   3233   3244   3247     1  180.0000771  2.0083200  2
   3234   3233   3244   3247     1  0.0000000  1.2552000  3
   3234   3237   3240   3241     1  180.0000771  0.0000000  2
   3234   3237   3240   3242     1  180.0000771  0.0000000  2
   3237   3234   3233   3244     1  180.0000771  2.0083200  2
   3237   3234   3233   3244     1  0.0000000  1.2552000  3
   3244   3247   3250   3251     1  180.0000771  0.0000000  2
   3244   3247   3250   3252     1  180.0000771  0.0000000  2
   3255   3258   3261   3264     1  0.0000000  0.6508444  3
   3258   3261   3264   3265     1  180.0000771  2.0083200  2
   3258   3261   3264   3265     1  0.0000000  1.2552000  3
   3258   3261   3264   3275     1  180.0000771  2.0083200  2
   3258   3261   3264   3275     1  0.0000000  1.2552000  3
   3261   3264   3265   3268     1  180.0000771  2.0083200  2
   3261   3264   3265   3268     1  0.0000000  1.2552000  3
   3261   3264   3275   3278     1  180.0000771  2.0083200  2
   3261   3264   3275   3278     1  0.0000000  1.2552000  3
   3261   3258   3255   3285     1  0.0000000  0.6508444  3
   3264   3265   3268   3271     1  0.0000000  0.6508444  3
   3264   3275   3278   3281     1  0.0000000  0.6508444  3
   3265   3268   3271   3272     1  180.0000771  0.0000000  2
   3265   3268   3271   3273     1  180.0000771  0.0000000  2
   3265   3264   3275   3278     1  180.0000771  2.0083200  2
   3265   3264   3275   3278     1  0.0000000  1.2552000  3
   3268   3265   3264   3275     1  180.0000771  2.0083200  2
   3268   3265   3264   3275     1  0.0000000  1.2552000  3
   3275   3278   3281   3282     1  180.0000771  0.0000000  2
   3275   3278   3281   3283     1  180.0000771  0.0000000  2
   3286   3289   3292   3295     1  0.0000000  0.6508444  3
   3289   3292   3295   3296     1  180.0000771  2.0083200  2
   3289   3292   3295   3296     1  0.0000000  1.2552000  3
   3289   3292   3295   3306     1  180.0000771  2.0083200  2
   3289   3292   3295   3306     1  0.0000000  1.2552000  3
   3292   3289   3286   3316     1  0.0000000  0.6508444  3
   3292   3295   3296   3299     1  180.0000771  2.0083200  2
   3292   3295   3296   3299     1  0.0000000  1.2552000  3
   3292   3295   3306   3309     1  180.0000771  2.0083200  2
   3292   3295   3306   3309     1  0.0000000  1.2552000  3
   3295   3296   3299   3302     1  0.0000000  0.6508444  3
   3295   3306   3309   3312     1  0.0000000  0.6508444  3
   3296   3295   3306   3309     1  180.0000771  2.0083200  2
   3296   3295   3306   3309     1  0.0000000  1.2552000  3
   3296   3299   3302   3303     1  180.0000771  0.0000000  2
   3296   3299   3302   3304     1  180.0000771  0.0000000  2
   3299   3296   3295   3306     1  180.0000771  2.0083200  2
   3299   3296   3295   3306     1  0.0000000  1.2552000  3
   3306   3309   3312   3313     1  180.0000771  0.0000000  2
   3306   3309   3312   3314     1  180.0000771  0.0000000  2
   3317   3320   3323   3326     1  0.0000000  0.6508444  3
   3320   3323   3326   3327     1  180.0000771  2.0083200  2
   3320   3323   3326   3327     1  0.0000000  1.2552000  3
   3320   3323   3326   3337     1  180.0000771  2.0083200  2
   3320   3323   3326   3337     1  0.0000000  1.2552000  3
   3323   3326   3327   3330     1  180.0000771  2.0083200  2
   3323   3326   3327   3330     1  0.0000000  1.2552000  3
   3323   3326   3337   3340     1  180.0000771  2.0083200  2
   3323   3326   3337   3340     1  0.0000000  1.2552000  3
   3323   3320   3317   3347     1  0.0000000  0.6508444  3
   3326   3327   3330   3333     1  0.0000000  0.6508444  3
   3326   3337   3340   3343     1  0.0000000  0.6508444  3
   3327   3330   3333   3334     1  180.0000771  0.0000000  2
   3327   3330   3333   3335     1  180.0000771  0.0000000  2
   3327   3326   3337   3340     1  180.0000771  2.0083200  2
   3327   3326   3337   3340     1  0.0000000  1.2552000  3
   3330   3327   3326   3337     1  180.0000771  2.0083200  2
   3330   3327   3326   3337     1  0.0000000  1.2552000  3
   3337   3340   3343   3344     1  180.0000771  0.0000000  2
   3337   3340   3343   3345     1  180.0000771  0.0000000  2
   3348   3351   3354   3357     1  0.0000000  0.6508444  3
   3351   3354   3357   3358     1  180.0000771  2.0083200  2
   3351   3354   3357   3358     1  0.0000000  1.2552000  3
   3351   3354   3357   3368     1  180.0000771  2.0083200  2
   3351   3354   3357   3368     1  0.0000000  1.2552000  3
   3354   3351   3348   3378     1  0.0000000  0.6508444  3
   3354   3357   3358   3361     1  180.0000771  2.0083200  2
   3354   3357   3358   3361     1  0.0000000  1.2552000  3
   3354   3357   3368   3371     1  180.0000771  2.0083200  2
   3354   3357   3368   3371     1  0.0000000  1.2552000  3
   3357   3358   3361   3364     1  0.0000000  0.6508444  3
   3357   3368   3371   3374     1  0.0000000  0.6508444  3
   3358   3357   3368   3371     1  180.0000771  2.0083200  2
   3358   3357   3368   3371     1  0.0000000  1.2552000  3
   3358   3361   3364   3365     1  180.0000771  0.0000000  2
   3358   3361   3364   3366     1  180.0000771  0.0000000  2
   3361   3358   3357   3368     1  180.0000771  2.0083200  2
   3361   3358   3357   3368     1  0.0000000  1.2552000  3
   3368   3371   3374   3375     1  180.0000771  0.0000000  2
   3368   3371   3374   3376     1  180.0000771  0.0000000  2
   3379   3382   3385   3388     1  0.0000000  0.6508444  3
   3382   3385   3388   3389     1  180.0000771  2.0083200  2
   3382   3385   3388   3389     1  0.0000000  1.2552000  3
   3382   3385   3388   3399     1  180.0000771  2.0083200  2
   3382   3385   3388   3399     1  0.0000000  1.2552000  3
   3385   3388   3389   3392     1  180.0000771  2.0083200  2
   3385   3388   3389   3392     1  0.0000000  1.2552000  3
   3385   3388   3399   3402     1  180.0000771  2.0083200  2
   3385   3388   3399   3402     1  0.0000000  1.2552000  3
   3385   3382   3379   3409     1  0.0000000  0.6508444  3
   3388   3389   3392   3395     1  0.0000000  0.6508444  3
   3388   3399   3402   3405     1  0.0000000  0.6508444  3
   3389   3392   3395   3396     1  180.0000771  0.0000000  2
   3389   3392   3395   3397     1  180.0000771  0.0000000  2
   3389   3388   3399   3402     1  180.0000771  2.0083200  2
   3389   3388   3399   3402     1  0.0000000  1.2552000  3
   3392   3389   3388   3399     1  180.0000771  2.0083200  2
   3392   3389   3388   3399     1  0.0000000  1.2552000  3
   3399   3402   3405   3406     1  180.0000771  0.0000000  2
   3399   3402   3405   3407     1  180.0000771  0.0000000  2
   3410   3413   3416   3419     1  0.0000000  0.6508444  3
   3413   3416   3419   3420     1  180.0000771  2.0083200  2
   3413   3416   3419   3420     1  0.0000000  1.2552000  3
   3413   3416   3419   3430     1  180.0000771  2.0083200  2
   3413   3416   3419   3430     1  0.0000000  1.2552000  3
   3416   3413   3410   3440     1  0.0000000  0.6508444  3
   3416   3419   3420   3423     1  180.0000771  2.0083200  2
   3416   3419   3420   3423     1  0.0000000  1.2552000  3
   3416   3419   3430   3433     1  180.0000771  2.0083200  2
   3416   3419   3430   3433     1  0.0000000  1.2552000  3
   3419   3420   3423   3426     1  0.0000000  0.6508444  3
   3419   3430   3433   3436     1  0.0000000  0.6508444  3
   3420   3419   3430   3433     1  180.0000771  2.0083200  2
   3420   3419   3430   3433     1  0.0000000  1.2552000  3
   3420   3423   3426   3427     1  180.0000771  0.0000000  2
   3420   3423   3426   3428     1  180.0000771  0.0000000  2
   3423   3420   3419   3430     1  180.0000771  2.0083200  2
   3423   3420   3419   3430     1  0.0000000  1.2552000  3
   3430   3433   3436   3437     1  180.0000771  0.0000000  2
   3430   3433   3436   3438     1  180.0000771  0.0000000  2
   3441   3444   3447   3450     1  0.0000000  0.6508444  3
   3444   3447   3450   3451     1  180.0000771  2.0083200  2
   3444   3447   3450   3451     1  0.0000000  1.2552000  3
   3444   3447   3450   3461     1  180.0000771  2.0083200  2
   3444   3447   3450   3461     1  0.0000000  1.2552000  3
   3447   3450   3451   3454     1  180.0000771  2.0083200  2
   3447   3450   3451   3454     1  0.0000000  1.2552000  3
   3447   3450   3461   3464     1  180.0000771  2.0083200  2
   3447   3450   3461   3464     1  0.0000000  1.2552000  3
   3447   3444   3441   3471     1  0.0000000  0.6508444  3
   3450   3451   3454   3457     1  0.0000000  0.6508444  3
   3450   3461   3464   3467     1  0.0000000  0.6508444  3
   3451   3454   3457   3458     1  180.0000771  0.0000000  2
   3451   3454   3457   3459     1  180.0000771  0.0000000  2
   3451   3450   3461   3464     1  180.0000771  2.0083200  2
   3451   3450   3461   3464     1  0.0000000  1.2552000  3
   3454   3451   3450   3461     1  180.0000771  2.0083200  2
   3454   3451   3450   3461     1  0.0000000  1.2552000  3
   3461   3464   3467   3468     1  180.0000771  0.0000000  2
   3461   3464   3467   3469     1  180.0000771  0.0000000  2
   3472   3475   3478   3481     1  0.0000000  0.6508444  3
   3475   3478   3481   3482     1  180.0000771  2.0083200  2
   3475   3478   3481   3482     1  0.0000000  1.2552000  3
   3475   3478   3481   3492     1  180.0000771  2.0083200  2
   3475   3478   3481   3492     1  0.0000000  1.2552000  3
   3478   3475   3472   3502     1  0.0000000  0.6508444  3
   3478   3481   3482   3485     1  180.0000771  2.0083200  2
   3478   3481   3482   3485     1  0.0000000  1.2552000  3
   3478   3481   3492   3495     1  180.0000771  2.0083200  2
   3478   3481   3492   3495     1  0.0000000  1.2552000  3
   3481   3482   3485   3488     1  0.0000000  0.6508444  3
   3481   3492   3495   3498     1  0.0000000  0.6508444  3
   3482   3481   3492   3495     1  180.0000771  2.0083200  2
   3482   3481   3492   3495     1  0.0000000  1.2552000  3
   3482   3485   3488   3489     1  180.0000771  0.0000000  2
   3482   3485   3488   3490     1  180.0000771  0.0000000  2
   3485   3482   3481   3492     1  180.0000771  2.0083200  2
   3485   3482   3481   3492     1  0.0000000  1.2552000  3
   3492   3495   3498   3499     1  180.0000771  0.0000000  2
   3492   3495   3498   3500     1  180.0000771  0.0000000  2
   3503   3506   3509   3512     1  0.0000000  0.6508444  3
   3506   3509   3512   3513     1  180.0000771  2.0083200  2
   3506   3509   3512   3513     1  0.0000000  1.2552000  3
   3506   3509   3512   3523     1  180.0000771  2.0083200  2
   3506   3509   3512   3523     1  0.0000000  1.2552000  3
   3509   3512   3513   3516     1  180.0000771  2.0083200  2
   3509   3512   3513   3516     1  0.0000000  1.2552000  3
   3509   3512   3523   3526     1  180.0000771  2.0083200  2
   3509   3512   3523   3526     1  0.0000000  1.2552000  3
   3509   3506   3503   3533     1  0.0000000  0.6508444  3
   3512   3513   3516   3519     1  0.0000000  0.6508444  3
   3512   3523   3526   3529     1  0.0000000  0.6508444  3
   3513   3516   3519   3520     1  180.0000771  0.0000000  2
   3513   3516   3519   3521     1  180.0000771  0.0000000  2
   3513   3512   3523   3526     1  180.0000771  2.0083200  2
   3513   3512   3523   3526     1  0.0000000  1.2552000  3
   3516   3513   3512   3523     1  180.0000771  2.0083200  2
   3516   3513   3512   3523     1  0.0000000  1.2552000  3
   3523   3526   3529   3530     1  180.0000771  0.0000000  2
   3523   3526   3529   3531     1  180.0000771  0.0000000  2
   3534   3537   3540   3543     1  0.0000000  0.6508444  3
   3537   3540   3543   3544     1  180.0000771  2.0083200  2
   3537   3540   3543   3544     1  0.0000000  1.2552000  3
   3537   3540   3543   3554     1  180.0000771  2.0083200  2
   3537   3540   3543   3554     1  0.0000000  1.2552000  3
   3540   3537   3534   3564     1  0.0000000  0.6508444  3
   3540   3543   3544   3547     1  180.0000771  2.0083200  2
   3540   3543   3544   3547     1  0.0000000  1.2552000  3
   3540   3543   3554   3557     1  180.0000771  2.0083200  2
   3540   3543   3554   3557     1  0.0000000  1.2552000  3
   3543   3544   3547   3550     1  0.0000000  0.6508444  3
   3543   3554   3557   3560     1  0.0000000  0.6508444  3
   3544   3543   3554   3557     1  180.0000771  2.0083200  2
   3544   3543   3554   3557     1  0.0000000  1.2552000  3
   3544   3547   3550   3551     1  180.0000771  0.0000000  2
   3544   3547   3550   3552     1  180.0000771  0.0000000  2
   3547   3544   3543   3554     1  180.0000771  2.0083200  2
   3547   3544   3543   3554     1  0.0000000  1.2552000  3
   3554   3557   3560   3561     1  180.0000771  0.0000000  2
   3554   3557   3560   3562     1  180.0000771  0.0000000  2
   3565   3568   3571   3574     1  0.0000000  0.6508444  3
   3568   3571   3574   3575     1  180.0000771  2.0083200  2
   3568   3571   3574   3575     1  0.0000000  1.2552000  3
   3568   3571   3574   3585     1  180.0000771  2.0083200  2
   3568   3571   3574   3585     1  0.0000000  1.2552000  3
   3571   3574   3575   3578     1  180.0000771  2.0083200  2
   3571   3574   3575   3578     1  0.0000000  1.2552000  3
   3571   3574   3585   3588     1  180.0000771  2.0083200  2
   3571   3574   3585   3588     1  0.0000000  1.2552000  3
   3571   3568   3565   3595     1  0.0000000  0.6508444  3
   3574   3575   3578   3581     1  0.0000000  0.6508444  3
   3574   3585   3588   3591     1  0.0000000  0.6508444  3
   3575   3578   3581   3582     1  180.0000771  0.0000000  2
   3575   3578   3581   3583     1  180.0000771  0.0000000  2
   3575   3574   3585   3588     1  180.0000771  2.0083200  2
   3575   3574   3585   3588     1  0.0000000  1.2552000  3
   3578   3575   3574   3585     1  180.0000771  2.0083200  2
   3578   3575   3574   3585     1  0.0000000  1.2552000  3
   3585   3588   3591   3592     1  180.0000771  0.0000000  2
   3585   3588   3591   3593     1  180.0000771  0.0000000  2
   3596   3599   3602   3605     1  0.0000000  0.6508444  3
   3599   3602   3605   3606     1  180.0000771  2.0083200  2
   3599   3602   3605   3606     1  0.0000000  1.2552000  3
   3599   3602   3605   3616     1  180.0000771  2.0083200  2
   3599   3602   3605   3616     1  0.0000000  1.2552000  3
   3602   3599   3596   3626     1  0.0000000  0.6508444  3
   3602   3605   3606   3609     1  180.0000771  2.0083200  2
   3602   3605   3606   3609     1  0.0000000  1.2552000  3
   3602   3605   3616   3619     1  180.0000771  2.0083200  2
   3602   3605   3616   3619     1  0.0000000  1.2552000  3
   3605   3606   3609   3612     1  0.0000000  0.6508444  3
   3605   3616   3619   3622     1  0.0000000  0.6508444  3
   3606   3605   3616   3619     1  180.0000771  2.0083200  2
   3606   3605   3616   3619     1  0.0000000  1.2552000  3
   3606   3609   3612   3613     1  180.0000771  0.0000000  2
   3606   3609   3612   3614     1  180.0000771  0.0000000  2
   3609   3606   3605   3616     1  180.0000771  2.0083200  2
   3609   3606   3605   3616     1  0.0000000  1.2552000  3
   3616   3619   3622   3623     1  180.0000771  0.0000000  2
   3616   3619   3622   3624     1  180.0000771  0.0000000  2
   3627   3630   3633   3636     1  0.0000000  0.6508444  3
   3630   3633   3636   3637     1  180.0000771  2.0083200  2
   3630   3633   3636   3637     1  0.0000000  1.2552000  3
   3630   3633   3636   3647     1  180.0000771  2.0083200  2
   3630   3633   3636   3647     1  0.0000000  1.2552000  3
   3633   3636   3637   3640     1  180.0000771  2.0083200  2
   3633   3636   3637   3640     1  0.0000000  1.2552000  3
   3633   3636   3647   3650     1  180.0000771  2.0083200  2
   3633   3636   3647   3650     1  0.0000000  1.2552000  3
   3633   3630   3627   3657     1  0.0000000  0.6508444  3
   3636   3637   3640   3643     1  0.0000000  0.6508444  3
   3636   3647   3650   3653     1  0.0000000  0.6508444  3
   3637   3640   3643   3644     1  180.0000771  0.0000000  2
   3637   3640   3643   3645     1  180.0000771  0.0000000  2
   3637   3636   3647   3650     1  180.0000771  2.0083200  2
   3637   3636   3647   3650     1  0.0000000  1.2552000  3
   3640   3637   3636   3647     1  180.0000771  2.0083200  2
   3640   3637   3636   3647     1  0.0000000  1.2552000  3
   3647   3650   3653   3654     1  180.0000771  0.0000000  2
   3647   3650   3653   3655     1  180.0000771  0.0000000  2
   3658   3661   3664   3667     1  0.0000000  0.6508444  3
   3661   3664   3667   3668     1  180.0000771  2.0083200  2
   3661   3664   3667   3668     1  0.0000000  1.2552000  3
   3661   3664   3667   3678     1  180.0000771  2.0083200  2
   3661   3664   3667   3678     1  0.0000000  1.2552000  3
   3664   3661   3658   3688     1  0.0000000  0.6508444  3
   3664   3667   3668   3671     1  180.0000771  2.0083200  2
   3664   3667   3668   3671     1  0.0000000  1.2552000  3
   3664   3667   3678   3681     1  180.0000771  2.0083200  2
   3664   3667   3678   3681     1  0.0000000  1.2552000  3
   3667   3668   3671   3674     1  0.0000000  0.6508444  3
   3667   3678   3681   3684     1  0.0000000  0.6508444  3
   3668   3667   3678   3681     1  180.0000771  2.0083200  2
   3668   3667   3678   3681     1  0.0000000  1.2552000  3
   3668   3671   3674   3675     1  180.0000771  0.0000000  2
   3668   3671   3674   3676     1  180.0000771  0.0000000  2
   3671   3668   3667   3678     1  180.0000771  2.0083200  2
   3671   3668   3667   3678     1  0.0000000  1.2552000  3
   3678   3681   3684   3685     1  180.0000771  0.0000000  2
   3678   3681   3684   3686     1  180.0000771  0.0000000  2
   3689   3692   3695   3698     1  0.0000000  0.6508444  3
   3692   3695   3698   3699     1  180.0000771  2.0083200  2
   3692   3695   3698   3699     1  0.0000000  1.2552000  3
   3692   3695   3698   3709     1  180.0000771  2.0083200  2
   3692   3695   3698   3709     1  0.0000000  1.2552000  3
   3695   3698   3699   3702     1  180.0000771  2.0083200  2
   3695   3698   3699   3702     1  0.0000000  1.2552000  3
   3695   3698   3709   3712     1  180.0000771  2.0083200  2
   3695   3698   3709   3712     1  0.0000000  1.2552000  3
   3695   3692   3689   3719     1  0.0000000  0.6508444  3
   3698   3699   3702   3705     1  0.0000000  0.6508444  3
   3698   3709   3712   3715     1  0.0000000  0.6508444  3
   3699   3702   3705   3706     1  180.0000771  0.0000000  2
   3699   3702   3705   3707     1  180.0000771  0.0000000  2
   3699   3698   3709   3712     1  180.0000771  2.0083200  2
   3699   3698   3709   3712     1  0.0000000  1.2552000  3
   3702   3699   3698   3709     1  180.0000771  2.0083200  2
   3702   3699   3698   3709     1  0.0000000  1.2552000  3
   3709   3712   3715   3716     1  180.0000771  0.0000000  2
   3709   3712   3715   3717     1  180.0000771  0.0000000  2
   3720   3723   3726   3729     1  0.0000000  0.6508444  3
   3723   3726   3729   3730     1  180.0000771  2.0083200  2
   3723   3726   3729   3730     1  0.0000000  1.2552000  3
   3723   3726   3729   3740     1  180.0000771  2.0083200  2
   3723   3726   3729   3740     1  0.0000000  1.2552000  3
   3726   3723   3720   3750     1  0.0000000  0.6508444  3
   3726   3729   3730   3733     1  180.0000771  2.0083200  2
   3726   3729   3730   3733     1  0.0000000  1.2552000  3
   3726   3729   3740   3743     1  180.0000771  2.0083200  2
   3726   3729   3740   3743     1  0.0000000  1.2552000  3
   3729   3730   3733   3736     1  0.0000000  0.6508444  3
   3729   3740   3743   3746     1  0.0000000  0.6508444  3
   3730   3729   3740   3743     1  180.0000771  2.0083200  2
   3730   3729   3740   3743     1  0.0000000  1.2552000  3
   3730   3733   3736   3737     1  180.0000771  0.0000000  2
   3730   3733   3736   3738     1  180.0000771  0.0000000  2
   3733   3730   3729   3740     1  180.0000771  2.0083200  2
   3733   3730   3729   3740     1  0.0000000  1.2552000  3
   3740   3743   3746   3747     1  180.0000771  0.0000000  2
   3740   3743   3746   3748     1  180.0000771  0.0000000  2
   3751   3754   3757   3760     1  0.0000000  0.6508444  3
   3754   3757   3760   3761     1  180.0000771  2.0083200  2
   3754   3757   3760   3761     1  0.0000000  1.2552000  3
   3754   3757   3760   3771     1  180.0000771  2.0083200  2
   3754   3757   3760   3771     1  0.0000000  1.2552000  3
   3757   3760   3761   3764     1  180.0000771  2.0083200  2
   3757   3760   3761   3764     1  0.0000000  1.2552000  3
   3757   3760   3771   3774     1  180.0000771  2.0083200  2
   3757   3760   3771   3774     1  0.0000000  1.2552000  3
   3757   3754   3751   3781     1  0.0000000  0.6508444  3
   3760   3761   3764   3767     1  0.0000000  0.6508444  3
   3760   3771   3774   3777     1  0.0000000  0.6508444  3
   3761   3764   3767   3768     1  180.0000771  0.0000000  2
   3761   3764   3767   3769     1  180.0000771  0.0000000  2
   3761   3760   3771   3774     1  180.0000771  2.0083200  2
   3761   3760   3771   3774     1  0.0000000  1.2552000  3
   3764   3761   3760   3771     1  180.0000771  2.0083200  2
   3764   3761   3760   3771     1  0.0000000  1.2552000  3
   3771   3774   3777   3778     1  180.0000771  0.0000000  2
   3771   3774   3777   3779     1  180.0000771  0.0000000  2
   1811   1815   1814   1816     4  180.0000771  4.6024000  2
   1821   1825   1824   1826     4  180.0000771  4.6024000  2
   1842   1846   1845   1847     4  180.0000771  4.6024000  2
   1852   1856   1855   1857     4  180.0000771  4.6024000  2
   1873   1877   1876   1878     4  180.0000771  4.6024000  2
   1883   1887   1886   1888     4  180.0000771  4.6024000  2
   1904   1908   1907   1909     4  180.0000771  4.6024000  2
   1914   1918   1917   1919     4  180.0000771  4.6024000  2
   1935   1939   1938   1940     4  180.0000771  4.6024000  2
   1945   1949   1948   1950     4  180.0000771  4.6024000  2
   1966   1970   1969   1971     4  180.0000771  4.6024000  2
   1976   1980   1979   1981     4  180.0000771  4.6024000  2
   1997   2001   2000   2002     4  180.0000771  4.6024000  2
   2007   2011   2010   2012     4  180.0000771  4.6024000  2
   2028   2032   2031   2033     4  180.0000771  4.6024000  2
   2038   2042   2041   2043     4  180.0000771  4.6024000  2
   2059   2063   2062   2064     4  180.0000771  4.6024000  2
   2069   2073   2072   2074     4  180.0000771  4.6024000  2
   2090   2094   2093   2095     4  180.0000771  4.6024000  2
   2100   2104   2103   2105     4  180.0000771  4.6024000  2
   2121   2125   2124   2126     4  180.0000771  4.6024000  2
   2131   2135   2134   2136     4  180.0000771  4.6024000  2
   2152   2156   2155   2157     4  180.0000771  4.6024000  2
   2162   2166   2165   2167     4  180.0000771  4.6024000  2
   2183   2187   2186   2188     4  180.0000771  4.6024000  2
   2193   2197   2196   2198     4  180.0000771  4.6024000  2
   2214   2218   2217   2219     4  180.0000771  4.6024000  2
   2224   2228   2227   2229     4  180.0000771  4.6024000  2
   2245   2249   2248   2250     4  180.0000771  4.6024000  2
   2255   2259   2258   2260     4  180.0000771  4.6024000  2
   2276   2280   2279   2281     4  180.0000771  4.6024000  2
   2286   2290   2289   2291     4  180.0000771  4.6024000  2
   2307   2311   2310   2312     4  180.0000771  4.6024000  2
   2317   2321   2320   2322     4  180.0000771  4.6024000  2
   2338   2342   2341   2343     4  180.0000771  4.6024000  2
   2348   2352   2351   2353     4  180.0000771  4.6024000  2
   2369   2373   2372   2374     4  180.0000771  4.6024000  2
   2379   2383   2382   2384     4  180.0000771  4.6024000  2
   2400   2404   2403   2405     4  180.0000771  4.6024000  2
   2410   2414   2413   2415     4  180.0000771  4.6024000  2
   2431   2435   2434   2436     4  180.0000771  4.6024000  2
   2441   2445   2444   2446     4  180.0000771  4.6024000  2
   2462   2466   2465   2467     4  180.0000771  4.6024000  2
   2472   2476   2475   2477     4  180.0000771  4.6024000  2
   2493   2497   2496   2498     4  180.0000771  4.6024000  2
   2503   2507   2506   2508     4  180.0000771  4.6024000  2
   2524   2528   2527   2529     4  180.0000771  4.6024000  2
   2534   2538   2537   2539     4  180.0000771  4.6024000  2
   2555   2559   2558   2560     4  180.0000771  4.6024000  2
   2565   2569   2568   2570     4  180.0000771  4.6024000  2
   2586   2590   2589   2591     4  180.0000771  4.6024000  2
   2596   2600   2599   2601     4  180.0000771  4.6024000  2
   2617   2621   2620   2622     4  180.0000771  4.6024000  2
   2627   2631   2630   2632     4  180.0000771  4.6024000  2
   2648   2652   2651   2653     4  180.0000771  4.6024000  2
   2658   2662   2661   2663     4  180.0000771  4.6024000  2
   2679   2683   2682   2684     4  180.0000771  4.6024000  2
   2689   2693   2692   2694     4  180.0000771  4.6024000  2
   2710   2714   2713   2715     4  180.0000771  4.6024000  2
   2720   2724   2723   2725     4  180.0000771  4.6024000  2
   2741   2745   2744   2746     4  180.0000771  4.6024000  2
   2751   2755   2754   2756     4  180.0000771  4.6024000  2
   2772   2776   2775   2777     4  180.0000771  4.6024000  2
   2782   2786   2785   2787     4  180.0000771  4.6024000  2
   2803   2807   2806   2808     4  180.0000771  4.6024000  2
   2813   2817   2816   2818     4  180.0000771  4.6024000  2
   2834   2838   2837   2839     4  180.0000771  4.6024000  2
   2844   2848   2847   2849     4  180.0000771  4.6024000  2
   2865   2869   2868   2870     4  180.0000771  4.6024000  2
   2875   2879   2878   2880     4  180.0000771  4.6024000  2
   2896   2900   2899   2901     4  180.0000771  4.6024000  2
   2906   2910   2909   2911     4  180.0000771  4.6024000  2
   2927   2931   2930   2932     4  180.0000771  4.6024000  2
   2937   2941   2940   2942     4  180.0000771  4.6024000  2
   2958   2962   2961   2963     4  180.0000771  4.6024000  2
   2968   2972   2971   2973     4  180.0000771  4.6024000  2
   2989   2993   2992   2994     4  180.0000771  4.6024000  2
   2999   3003   3002   3004     4  180.0000771  4.6024000  2
   3020   3024   3023   3025     4  180.0000771  4.6024000  2
   3030   3034   3033   3035     4  180.0000771  4.6024000  2
   3051   3055   3054   3056     4  180.0000771  4.6024000  2
   3061   3065   3064   3066     4  180.0000771  4.6024000  2
   3082   3086   3085   3087     4  180.0000771  4.6024000  2
   3092   3096   3095   3097     4  180.0000771  4.6024000  2
   3113   3117   3116   3118     4  180.0000771  4.6024000  2
   3123   3127   3126   3128     4  180.0000771  4.6024000  2
   3144   3148   3147   3149     4  180.0000771  4.6024000  2
   3154   3158   3157   3159     4  180.0000771  4.6024000  2
   3175   3179   3178   3180     4  180.0000771  4.6024000  2
   3185   3189   3188   3190     4  180.0000771  4.6024000  2
   3206   3210   3209   3211     4  180.0000771  4.6024000  2
   3216   3220   3219   3221     4  180.0000771  4.6024000  2
   3237   3241   3240   3242     4  180.0000771  4.6024000  2
   3247   3251   3250   3252     4  180.0000771  4.6024000  2
   3268   3272   3271   3273     4  180.0000771  4.6024000  2
   3278   3282   3281   3283     4  180.0000771  4.6024000  2
   3299   3303   3302   3304     4  180.0000771  4.6024000  2
   3309   3313   3312   3314     4  180.0000771  4.6024000  2
   3330   3334   3333   3335     4  180.0000771  4.6024000  2
   3340   3344   3343   3345     4  180.0000771  4.6024000  2
   3361   3365   3364   3366     4  180.0000771  4.6024000  2
   3371   3375   3374   3376     4  180.0000771  4.6024000  2
   3392   3396   3395   3397     4  180.0000771  4.6024000  2
   3402   3406   3405   3407     4  180.0000771  4.6024000  2
   3423   3427   3426   3428     4  180.0000771  4.6024000  2
   3433   3437   3436   3438     4  180.0000771  4.6024000  2
   3454   3458   3457   3459     4  180.0000771  4.6024000  2
   3464   3468   3467   3469     4  180.0000771  4.6024000  2
   3485   3489   3488   3490     4  180.0000771  4.6024000  2
   3495   3499   3498   3500     4  180.0000771  4.6024000  2
   3516   3520   3519   3521     4  180.0000771  4.6024000  2
   3526   3530   3529   3531     4  180.0000771  4.6024000  2
   3547   3551   3550   3552     4  180.0000771  4.6024000  2
   3557   3561   3560   3562     4  180.0000771  4.6024000  2
   3578   3582   3581   3583     4  180.0000771  4.6024000  2
   3588   3592   3591   3593     4  180.0000771  4.6024000  2
   3609   3613   3612   3614     4  180.0000771  4.6024000  2
   3619   3623   3622   3624     4  180.0000771  4.6024000  2
   3640   3644   3643   3645     4  180.0000771  4.6024000  2
   3650   3654   3653   3655     4  180.0000771  4.6024000  2
   3671   3675   3674   3676     4  180.0000771  4.6024000  2
   3681   3685   3684   3686     4  180.0000771  4.6024000  2
   3702   3706   3705   3707     4  180.0000771  4.6024000  2
   3712   3716   3715   3717     4  180.0000771  4.6024000  2
   3733   3737   3736   3738     4  180.0000771  4.6024000  2
   3743   3747   3746   3748     4  180.0000771  4.6024000  2
   3764   3768   3767   3769     4  180.0000771  4.6024000  2
   3774   3778   3777   3779     4  180.0000771  4.6024000  2
      1      2      8      9     1  0.0000000  1.0460000  1
      1      2      8      9     1  0.0000000  0.0000000  3
      1      2      8     10     1  0.0000000  1.0460000  1
      1      2      8     10     1  0.0000000  0.0000000  3
      1      5     11     12     1  0.0000000  1.0460000  1
      1      5     11     12     1  0.0000000  0.0000000  3
      1      5     11     13     1  0.0000000  1.0460000  1
      1      5     11     13     1  0.0000000  0.0000000  3
      2      1      5      6     1  0.0000000  1.6038667  3
      2      1      5      7     1  0.0000000  1.6038667  3
      2      8     14     15     1  0.0000000  0.6508444  3
      2      8     14     16     1  0.0000000  0.6508444  3
      5      1      2      3     1  0.0000000  1.6038667  3
      3      2      8     14     1  0.0000000  0.6508444  3
      3      2      8      9     1  0.0000000  0.6508444  3
      3      2      8     10     1  0.0000000  0.6508444  3
      5      1      2      4     1  0.0000000  1.6038667  3
      4      2      8     14     1  0.0000000  0.6508444  3
      4      2      8      9     1  0.0000000  0.6508444  3
      4      2      8     10     1  0.0000000  0.6508444  3
      5     11     17     18     1  0.0000000  0.6508444  3
      5     11     17     19     1  0.0000000  0.6508444  3
      6      5     11     17     1  0.0000000  0.6508444  3
      6      5     11     12     1  0.0000000  0.6508444  3
      6      5     11     13     1  0.0000000  0.6508444  3
      7      5     11     17     1  0.0000000  0.6508444  3
      7      5     11     12     1  0.0000000  0.6508444  3
      7      5     11     13     1  0.0000000  0.6508444  3
      9      8     14     20     1  0.0000000  0.6508444  3
      9      8     14     15     1  0.0000000  0.6508444  3
      9      8     14     16     1  0.0000000  0.6508444  3
     10      8     14     20     1  0.0000000  0.6508444  3
     10      8     14     15     1  0.0000000  0.6508444  3
     10      8     14     16     1  0.0000000  0.6508444  3
     12     11     17     21     1  0.0000000  0.6508444  3
     12     11     17     18     1  0.0000000  0.6508444  3
     12     11     17     19     1  0.0000000  0.6508444  3
     13     11     17     21     1  0.0000000  0.6508444  3
     13     11     17     18     1  0.0000000  0.6508444  3
     13     11     17     19     1  0.0000000  0.6508444  3
     14     20     28     29     1  0.0000000  1.2552000  3
     14     20     28     30     1  0.0000000  1.2552000  3
     14     20     31     32     1  0.0000000  1.2552000  3
     14     20     31     33     1  0.0000000  1.2552000  3
     15     14     20     28     1  0.0000000  1.2552000  3
     15     14     20     31     1  0.0000000  1.2552000  3
     16     14     20     28     1  0.0000000  1.2552000  3
     16     14     20     31     1  0.0000000  1.2552000  3
     17     21     22     23     1  0.0000000  1.2552000  3
     17     21     22     24     1  0.0000000  1.2552000  3
     17     21     25     26     1  0.0000000  1.2552000  3
     17     21     25     27     1  0.0000000  1.2552000  3
     18     17     21     22     1  0.0000000  1.2552000  3
     18     17     21     25     1  0.0000000  1.2552000  3
     19     17     21     22     1  0.0000000  1.2552000  3
     19     17     21     25     1  0.0000000  1.2552000  3
     20     28     40     41     1  0.0000000  0.6508444  3
     20     28     40     42     1  0.0000000  0.6508444  3
     20     31     43     44     1  0.0000000  0.6508444  3
     20     31     43     45     1  0.0000000  0.6508444  3
     21     22     34     35     1  0.0000000  0.6508444  3
     21     22     34     36     1  0.0000000  0.6508444  3
     21     25     37     38     1  0.0000000  0.6508444  3
     21     25     37     39     1  0.0000000  0.6508444  3
     22     21     25     26     1  0.0000000  1.2552000  3
     22     21     25     27     1  0.0000000  1.2552000  3
     22     34     55     56     1  0.0000000  0.6508444  3
     22     34     55     57     1  0.0000000  0.6508444  3
     23     22     21     25     1  0.0000000  1.2552000  3
     23     22     34     55     1  0.0000000  0.6508444  3
     23     22     34     35     1  0.0000000  0.6508444  3
     23     22     34     36     1  0.0000000  0.6508444  3
     24     22     21     25     1  0.0000000  1.2552000  3
     24     22     34     55     1  0.0000000  0.6508444  3
     24     22     34     35     1  0.0000000  0.6508444  3
     24     22     34     36     1  0.0000000  0.6508444  3
     25     37     52     53     1  0.0000000  0.6508444  3
     25     37     52     54     1  0.0000000  0.6508444  3
     26     25     37     52     1  0.0000000  0.6508444  3
     26     25     37     38     1  0.0000000  0.6508444  3
     26     25     37     39     1  0.0000000  0.6508444  3
     27     25     37     52     1  0.0000000  0.6508444  3
     27     25     37     38     1  0.0000000  0.6508444  3
     27     25     37     39     1  0.0000000  0.6508444  3
     28     20     31     32     1  0.0000000  1.2552000  3
     28     20     31     33     1  0.0000000  1.2552000  3
     28     40     49     50     1  0.0000000  0.6508444  3
     28     40     49     51     1  0.0000000  0.6508444  3
     29     28     20     31     1  0.0000000  1.2552000  3
     29     28     40     49     1  0.0000000  0.6508444  3
     29     28     40     41     1  0.0000000  0.6508444  3
     29     28     40     42     1  0.0000000  0.6508444  3
     30     28     20     31     1  0.0000000  1.2552000  3
     30     28     40     49     1  0.0000000  0.6508444  3
     30     28     40     41     1  0.0000000  0.6508444  3
     30     28     40     42     1  0.0000000  0.6508444  3
     31     43     46     47     1  0.0000000  0.6508444  3
     31     43     46     48     1  0.0000000  0.6508444  3
     32     31     43     46     1  0.0000000  0.6508444  3
     32     31     43     44     1  0.0000000  0.6508444  3
     32     31     43     45     1  0.0000000  0.6508444  3
     33     31     43     46     1  0.0000000  0.6508444  3
     33     31     43     44     1  0.0000000  0.6508444  3
     33     31     43     45     1  0.0000000  0.6508444  3
     35     34     55    173     1  0.0000000  1.0460000  1
     35     34     55    173     1  0.0000000  0.0000000  3
     35     34     55     56     1  0.0000000  0.6508444  3
     35     34     55     57     1  0.0000000  0.6508444  3
     36     34     55    173     1  0.0000000  1.0460000  1
     36     34     55    173     1  0.0000000  0.0000000  3
     36     34     55     56     1  0.0000000  0.6508444  3
     36     34     55     57     1  0.0000000  0.6508444  3
     38     37     52    144     1  0.0000000  1.0460000  1
     38     37     52    144     1  0.0000000  0.0000000  3
     38     37     52     53     1  0.0000000  0.6508444  3
     38     37     52     54     1  0.0000000  0.6508444  3
     39     37     52    144     1  0.0000000  1.0460000  1
     39     37     52    144     1  0.0000000  0.0000000  3
     39     37     52     53     1  0.0000000  0.6508444  3
     39     37     52     54     1  0.0000000  0.6508444  3
     41     40     49    115     1  0.0000000  1.0460000  1
     41     40     49    115     1  0.0000000  0.0000000  3
     41     40     49     50     1  0.0000000  0.6508444  3
     41     40     49     51     1  0.0000000  0.6508444  3
     42     40     49    115     1  0.0000000  1.0460000  1
     42     40     49    115     1  0.0000000  0.0000000  3
     42     40     49     50     1  0.0000000  0.6508444  3
     42     40     49     51     1  0.0000000  0.6508444  3
     44     43     46     86     1  0.0000000  1.0460000  1
     44     43     46     86     1  0.0000000  0.0000000  3
     44     43     46     47     1  0.0000000  0.6508444  3
     44     43     46     48     1  0.0000000  0.6508444  3
     45     43     46     86     1  0.0000000  1.0460000  1
     45     43     46     86     1  0.0000000  0.0000000  3
     45     43     46     47     1  0.0000000  0.6508444  3
     45     43     46     48     1  0.0000000  0.6508444  3
     46     86     77     78     1  0.0000000  1.6038667  3
     46     86     77     79     1  0.0000000  1.6038667  3
     47     46     86     77     1  0.0000000  1.6038667  3
     48     46     86     77     1  0.0000000  1.6038667  3
     49    115    106    107     1  0.0000000  1.6038667  3
     49    115    106    108     1  0.0000000  1.6038667  3
     50     49    115    106     1  0.0000000  1.6038667  3
     51     49    115    106     1  0.0000000  1.6038667  3
     52    144    135    136     1  0.0000000  1.6038667  3
     52    144    135    137     1  0.0000000  1.6038667  3
     53     52    144    135     1  0.0000000  1.6038667  3
     54     52    144    135     1  0.0000000  1.6038667  3
     55    173    164    165     1  0.0000000  1.6038667  3
     55    173    164    166     1  0.0000000  1.6038667  3
     56     55    173    164     1  0.0000000  1.6038667  3
     57     55    173    164     1  0.0000000  1.6038667  3
     58     59     71     72     1  0.0000000  0.6508444  3
     58     59     71     73     1  0.0000000  0.6508444  3
     58     62     74     75     1  0.0000000  0.6508444  3
     58     62     74     76     1  0.0000000  0.6508444  3
     58     65     68     69     1  0.0000000  0.6508444  3
     58     65     68     70     1  0.0000000  0.6508444  3
     59     58     62     63     1  0.0000000  1.2552000  3
     59     58     62     64     1  0.0000000  1.2552000  3
     59     58     65     66     1  0.0000000  1.2552000  3
     59     58     65     67     1  0.0000000  1.2552000  3
     59     71     83     84     1  0.0000000  0.6508444  3
     59     71     83     85     1  0.0000000  0.6508444  3
     60     59     58     62     1  0.0000000  1.2552000  3
     60     59     58     65     1  0.0000000  1.2552000  3
     60     59     71     83     1  0.0000000  0.6508444  3
     60     59     71     72     1  0.0000000  0.6508444  3
     60     59     71     73     1  0.0000000  0.6508444  3
     61     59     58     62     1  0.0000000  1.2552000  3
     61     59     58     65     1  0.0000000  1.2552000  3
     61     59     71     83     1  0.0000000  0.6508444  3
     61     59     71     72     1  0.0000000  0.6508444  3
     61     59     71     73     1  0.0000000  0.6508444  3
     62     58     65     66     1  0.0000000  1.2552000  3
     62     58     65     67     1  0.0000000  1.2552000  3
     62     74     80     81     1  0.0000000  0.6508444  3
     62     74     80     82     1  0.0000000  0.6508444  3
     63     62     58     65     1  0.0000000  1.2552000  3
     63     62     74     80     1  0.0000000  0.6508444  3
     63     62     74     75     1  0.0000000  0.6508444  3
     63     62     74     76     1  0.0000000  0.6508444  3
     64     62     58     65     1  0.0000000  1.2552000  3
     64     62     74     80     1  0.0000000  0.6508444  3
     64     62     74     75     1  0.0000000  0.6508444  3
     64     62     74     76     1  0.0000000  0.6508444  3
     65     68     77     78     1  0.0000000  0.6508444  3
     65     68     77     79     1  0.0000000  0.6508444  3
     66     65     68     77     1  0.0000000  0.6508444  3
     66     65     68     69     1  0.0000000  0.6508444  3
     66     65     68     70     1  0.0000000  0.6508444  3
     67     65     68     77     1  0.0000000  0.6508444  3
     67     65     68     69     1  0.0000000  0.6508444  3
     67     65     68     70     1  0.0000000  0.6508444  3
     69     68     77     86     1  0.0000000  1.0460000  1
     69     68     77     86     1  0.0000000  0.0000000  3
     69     68     77     78     1  0.0000000  0.6508444  3
     69     68     77     79     1  0.0000000  0.6508444  3
     70     68     77     86     1  0.0000000  1.0460000  1
     70     68     77     86     1  0.0000000  0.0000000  3
     70     68     77     78     1  0.0000000  0.6508444  3
     70     68     77     79     1  0.0000000  0.6508444  3
     72     71     83    231     1  0.0000000  1.0460000  1
     72     71     83    231     1  0.0000000  0.0000000  3
     72     71     83     84     1  0.0000000  0.6508444  3
     72     71     83     85     1  0.0000000  0.6508444  3
     73     71     83    231     1  0.0000000  1.0460000  1
     73     71     83    231     1  0.0000000  0.0000000  3
     73     71     83     84     1  0.0000000  0.6508444  3
     73     71     83     85     1  0.0000000  0.6508444  3
     75     74     80    202     1  0.0000000  1.0460000  1
     75     74     80    202     1  0.0000000  0.0000000  3
     75     74     80     81     1  0.0000000  0.6508444  3
     75     74     80     82     1  0.0000000  0.6508444  3
     76     74     80    202     1  0.0000000  1.0460000  1
     76     74     80    202     1  0.0000000  0.0000000  3
     76     74     80     81     1  0.0000000  0.6508444  3
     76     74     80     82     1  0.0000000  0.6508444  3
     80    202    193    194     1  0.0000000  1.6038667  3
     80    202    193    195     1  0.0000000  1.6038667  3
     81     80    202    193     1  0.0000000  1.6038667  3
     82     80    202    193     1  0.0000000  1.6038667  3
     83    231    222    223     1  0.0000000  1.6038667  3
     83    231    222    224     1  0.0000000  1.6038667  3
     84     83    231    222     1  0.0000000  1.6038667  3
     85     83    231    222     1  0.0000000  1.6038667  3
     87     88    100    101     1  0.0000000  0.6508444  3
     87     88    100    102     1  0.0000000  0.6508444  3
     87     91    103    104     1  0.0000000  0.6508444  3
     87     91    103    105     1  0.0000000  0.6508444  3
     87     94     97     98     1  0.0000000  0.6508444  3
     87     94     97     99     1  0.0000000  0.6508444  3
     88     87     91     92     1  0.0000000  1.2552000  3
     88     87     91     93     1  0.0000000  1.2552000  3
     88     87     94     95     1  0.0000000  1.2552000  3
     88     87     94     96     1  0.0000000  1.2552000  3
     88    100    112    113     1  0.0000000  0.6508444  3
     88    100    112    114     1  0.0000000  0.6508444  3
     89     88     87     91     1  0.0000000  1.2552000  3
     89     88     87     94     1  0.0000000  1.2552000  3
     89     88    100    112     1  0.0000000  0.6508444  3
     89     88    100    101     1  0.0000000  0.6508444  3
     89     88    100    102     1  0.0000000  0.6508444  3
     90     88     87     91     1  0.0000000  1.2552000  3
     90     88     87     94     1  0.0000000  1.2552000  3
     90     88    100    112     1  0.0000000  0.6508444  3
     90     88    100    101     1  0.0000000  0.6508444  3
     90     88    100    102     1  0.0000000  0.6508444  3
     91     87     94     95     1  0.0000000  1.2552000  3
     91     87     94     96     1  0.0000000  1.2552000  3
     91    103    109    110     1  0.0000000  0.6508444  3
     91    103    109    111     1  0.0000000  0.6508444  3
     92     91     87     94     1  0.0000000  1.2552000  3
     92     91    103    109     1  0.0000000  0.6508444  3
     92     91    103    104     1  0.0000000  0.6508444  3
     92     91    103    105     1  0.0000000  0.6508444  3
     93     91     87     94     1  0.0000000  1.2552000  3
     93     91    103    109     1  0.0000000  0.6508444  3
     93     91    103    104     1  0.0000000  0.6508444  3
     93     91    103    105     1  0.0000000  0.6508444  3
     94     97    106    107     1  0.0000000  0.6508444  3
     94     97    106    108     1  0.0000000  0.6508444  3
     95     94     97    106     1  0.0000000  0.6508444  3
     95     94     97     98     1  0.0000000  0.6508444  3
     95     94     97     99     1  0.0000000  0.6508444  3
     96     94     97    106     1  0.0000000  0.6508444  3
     96     94     97     98     1  0.0000000  0.6508444  3
     96     94     97     99     1  0.0000000  0.6508444  3
     98     97    106    115     1  0.0000000  1.0460000  1
     98     97    106    115     1  0.0000000  0.0000000  3
     98     97    106    107     1  0.0000000  0.6508444  3
     98     97    106    108     1  0.0000000  0.6508444  3
     99     97    106    115     1  0.0000000  1.0460000  1
     99     97    106    115     1  0.0000000  0.0000000  3
     99     97    106    107     1  0.0000000  0.6508444  3
     99     97    106    108     1  0.0000000  0.6508444  3
    101    100    112    289     1  0.0000000  1.0460000  1
    101    100    112    289     1  0.0000000  0.0000000  3
    101    100    112    113     1  0.0000000  0.6508444  3
    101    100    112    114     1  0.0000000  0.6508444  3
    102    100    112    289     1  0.0000000  1.0460000  1
    102    100    112    289     1  0.0000000  0.0000000  3
    102    100    112    113     1  0.0000000  0.6508444  3
    102    100    112    114     1  0.0000000  0.6508444  3
    104    103    109    260     1  0.0000000  1.0460000  1
    104    103    109    260     1  0.0000000  0.0000000  3
    104    103    109    110     1  0.0000000  0.6508444  3
    104    103    109    111     1  0.0000000  0.6508444  3
    105    103    109    260     1  0.0000000  1.0460000  1
    105    103    109    260     1  0.0000000  0.0000000  3
    105    103    109    110     1  0.0000000  0.6508444  3
    105    103    109    111     1  0.0000000  0.6508444  3
    109    260    251    252     1  0.0000000  1.6038667  3
    109    260    251    253     1  0.0000000  1.6038667  3
    110    109    260    251     1  0.0000000  1.6038667  3
    111    109    260    251     1  0.0000000  1.6038667  3
    112    289    280    281     1  0.0000000  1.6038667  3
    112    289    280    282     1  0.0000000  1.6038667  3
    113    112    289    280     1  0.0000000  1.6038667  3
    114    112    289    280     1  0.0000000  1.6038667  3
    116    117    129    130     1  0.0000000  0.6508444  3
    116    117    129    131     1  0.0000000  0.6508444  3
    116    120    132    133     1  0.0000000  0.6508444  3
    116    120    132    134     1  0.0000000  0.6508444  3
    116    123    126    127     1  0.0000000  0.6508444  3
    116    123    126    128     1  0.0000000  0.6508444  3
    117    116    120    121     1  0.0000000  1.2552000  3
    117    116    120    122     1  0.0000000  1.2552000  3
    117    116    123    124     1  0.0000000  1.2552000  3
    117    116    123    125     1  0.0000000  1.2552000  3
    117    129    141    142     1  0.0000000  0.6508444  3
    117    129    141    143     1  0.0000000  0.6508444  3
    118    117    116    120     1  0.0000000  1.2552000  3
    118    117    116    123     1  0.0000000  1.2552000  3
    118    117    129    141     1  0.0000000  0.6508444  3
    118    117    129    130     1  0.0000000  0.6508444  3
    118    117    129    131     1  0.0000000  0.6508444  3
    119    117    116    120     1  0.0000000  1.2552000  3
    119    117    116    123     1  0.0000000  1.2552000  3
    119    117    129    141     1  0.0000000  0.6508444  3
    119    117    129    130     1  0.0000000  0.6508444  3
    119    117    129    131     1  0.0000000  0.6508444  3
    120    116    123    124     1  0.0000000  1.2552000  3
    120    116    123    125     1  0.0000000  1.2552000  3
    120    132    138    139     1  0.0000000  0.6508444  3
    120    132    138    140     1  0.0000000  0.6508444  3
    121    120    116    123     1  0.0000000  1.2552000  3
    121    120    132    138     1  0.0000000  0.6508444  3
    121    120    132    133     1  0.0000000  0.6508444  3
    121    120    132    134     1  0.0000000  0.6508444  3
    122    120    116    123     1  0.0000000  1.2552000  3
    122    120    132    138     1  0.0000000  0.6508444  3
    122    120    132    133     1  0.0000000  0.6508444  3
    122    120    132    134     1  0.0000000  0.6508444  3
    123    126    135    136     1  0.0000000  0.6508444  3
    123    126    135    137     1  0.0000000  0.6508444  3
    124    123    126    135     1  0.0000000  0.6508444  3
    124    123    126    127     1  0.0000000  0.6508444  3
    124    123    126    128     1  0.0000000  0.6508444  3
    125    123    126    135     1  0.0000000  0.6508444  3
    125    123    126    127     1  0.0000000  0.6508444  3
    125    123    126    128     1  0.0000000  0.6508444  3
    127    126    135    144     1  0.0000000  1.0460000  1
    127    126    135    144     1  0.0000000  0.0000000  3
    127    126    135    136     1  0.0000000  0.6508444  3
    127    126    135    137     1  0.0000000  0.6508444  3
    128    126    135    144     1  0.0000000  1.0460000  1
    128    126    135    144     1  0.0000000  0.0000000  3
    128    126    135    136     1  0.0000000  0.6508444  3
    128    126    135    137     1  0.0000000  0.6508444  3
    130    129    141    347     1  0.0000000  1.0460000  1
    130    129    141    347     1  0.0000000  0.0000000  3
    130    129    141    142     1  0.0000000  0.6508444  3
    130    129    141    143     1  0.0000000  0.6508444  3
    131    129    141    347     1  0.0000000  1.0460000  1
    131    129    141    347     1  0.0000000  0.0000000  3
    131    129    141    142     1  0.0000000  0.6508444  3
    131    129    141    143     1  0.0000000  0.6508444  3
    133    132    138    318     1  0.0000000  1.0460000  1
    133    132    138    318     1  0.0000000  0.0000000  3
    133    132    138    139     1  0.0000000  0.6508444  3
    133    132    138    140     1  0.0000000  0.6508444  3
    134    132    138    318     1  0.0000000  1.0460000  1
    134    132    138    318     1  0.0000000  0.0000000  3
    134    132    138    139     1  0.0000000  0.6508444  3
    134    132    138    140     1  0.0000000  0.6508444  3
    138    318    309    310     1  0.0000000  1.6038667  3
    138    318    309    311     1  0.0000000  1.6038667  3
    139    138    318    309     1  0.0000000  1.6038667  3
    140    138    318    309     1  0.0000000  1.6038667  3
    141    347    338    339     1  0.0000000  1.6038667  3
    141    347    338    340     1  0.0000000  1.6038667  3
    142    141    347    338     1  0.0000000  1.6038667  3
    143    141    347    338     1  0.0000000  1.6038667  3
    145    146    158    159     1  0.0000000  0.6508444  3
    145    146    158    160     1  0.0000000  0.6508444  3
    145    149    161    162     1  0.0000000  0.6508444  3
    145    149    161    163     1  0.0000000  0.6508444  3
    145    152    155    156     1  0.0000000  0.6508444  3
    145    152    155    157     1  0.0000000  0.6508444  3
    146    145    149    150     1  0.0000000  1.2552000  3
    146    145    149    151     1  0.0000000  1.2552000  3
    146    145    152    153     1  0.0000000  1.2552000  3
    146    145    152    154     1  0.0000000  1.2552000  3
    146    158    170    171     1  0.0000000  0.6508444  3
    146    158    170    172     1  0.0000000  0.6508444  3
    147    146    145    149     1  0.0000000  1.2552000  3
    147    146    145    152     1  0.0000000  1.2552000  3
    147    146    158    170     1  0.0000000  0.6508444  3
    147    146    158    159     1  0.0000000  0.6508444  3
    147    146    158    160     1  0.0000000  0.6508444  3
    148    146    145    149     1  0.0000000  1.2552000  3
    148    146    145    152     1  0.0000000  1.2552000  3
    148    146    158    170     1  0.0000000  0.6508444  3
    148    146    158    159     1  0.0000000  0.6508444  3
    148    146    158    160     1  0.0000000  0.6508444  3
    149    145    152    153     1  0.0000000  1.2552000  3
    149    145    152    154     1  0.0000000  1.2552000  3
    149    161    167    168     1  0.0000000  0.6508444  3
    149    161    167    169     1  0.0000000  0.6508444  3
    150    149    145    152     1  0.0000000  1.2552000  3
    150    149    161    167     1  0.0000000  0.6508444  3
    150    149    161    162     1  0.0000000  0.6508444  3
    150    149    161    163     1  0.0000000  0.6508444  3
    151    149    145    152     1  0.0000000  1.2552000  3
    151    149    161    167     1  0.0000000  0.6508444  3
    151    149    161    162     1  0.0000000  0.6508444  3
    151    149    161    163     1  0.0000000  0.6508444  3
    152    155    164    165     1  0.0000000  0.6508444  3
    152    155    164    166     1  0.0000000  0.6508444  3
    153    152    155    164     1  0.0000000  0.6508444  3
    153    152    155    156     1  0.0000000  0.6508444  3
    153    152    155    157     1  0.0000000  0.6508444  3
    154    152    155    164     1  0.0000000  0.6508444  3
    154    152    155    156     1  0.0000000  0.6508444  3
    154    152    155    157     1  0.0000000  0.6508444  3
    156    155    164    173     1  0.0000000  1.0460000  1
    156    155    164    173     1  0.0000000  0.0000000  3
    156    155    164    165     1  0.0000000  0.6508444  3
    156    155    164    166     1  0.0000000  0.6508444  3
    157    155    164    173     1  0.0000000  1.0460000  1
    157    155    164    173     1  0.0000000  0.0000000  3
    157    155    164    165     1  0.0000000  0.6508444  3
    157    155    164    166     1  0.0000000  0.6508444  3
    159    158    170    405     1  0.0000000  1.0460000  1
    159    158    170    405     1  0.0000000  0.0000000  3
    159    158    170    171     1  0.0000000  0.6508444  3
    159    158    170    172     1  0.0000000  0.6508444  3
    160    158    170    405     1  0.0000000  1.0460000  1
    160    158    170    405     1  0.0000000  0.0000000  3
    160    158    170    171     1  0.0000000  0.6508444  3
    160    158    170    172     1  0.0000000  0.6508444  3
    162    161    167    376     1  0.0000000  1.0460000  1
    162    161    167    376     1  0.0000000  0.0000000  3
    162    161    167    168     1  0.0000000  0.6508444  3
    162    161    167    169     1  0.0000000  0.6508444  3
    163    161    167    376     1  0.0000000  1.0460000  1
    163    161    167    376     1  0.0000000  0.0000000  3
    163    161    167    168     1  0.0000000  0.6508444  3
    163    161    167    169     1  0.0000000  0.6508444  3
    167    376    367    368     1  0.0000000  1.6038667  3
    167    376    367    369     1  0.0000000  1.6038667  3
    168    167    376    367     1  0.0000000  1.6038667  3
    169    167    376    367     1  0.0000000  1.6038667  3
    170    405    396    397     1  0.0000000  1.6038667  3
    170    405    396    398     1  0.0000000  1.6038667  3
    171    170    405    396     1  0.0000000  1.6038667  3
    172    170    405    396     1  0.0000000  1.6038667  3
    174    175    187    188     1  0.0000000  0.6508444  3
    174    175    187    189     1  0.0000000  0.6508444  3
    174    178    190    191     1  0.0000000  0.6508444  3
    174    178    190    192     1  0.0000000  0.6508444  3
    174    181    184    185     1  0.0000000  0.6508444  3
    174    181    184    186     1  0.0000000  0.6508444  3
    175    174    178    179     1  0.0000000  1.2552000  3
    175    174    178    180     1  0.0000000  1.2552000  3
    175    174    181    182     1  0.0000000  1.2552000  3
    175    174    181    183     1  0.0000000  1.2552000  3
    175    187    199    200     1  0.0000000  0.6508444  3
    175    187    199    201     1  0.0000000  0.6508444  3
    176    175    174    178     1  0.0000000  1.2552000  3
    176    175    174    181     1  0.0000000  1.2552000  3
    176    175    187    199     1  0.0000000  0.6508444  3
    176    175    187    188     1  0.0000000  0.6508444  3
    176    175    187    189     1  0.0000000  0.6508444  3
    177    175    174    178     1  0.0000000  1.2552000  3
    177    175    174    181     1  0.0000000  1.2552000  3
    177    175    187    199     1  0.0000000  0.6508444  3
    177    175    187    188     1  0.0000000  0.6508444  3
    177    175    187    189     1  0.0000000  0.6508444  3
    178    174    181    182     1  0.0000000  1.2552000  3
    178    174    181    183     1  0.0000000  1.2552000  3
    178    190    196    197     1  0.0000000  0.6508444  3
    178    190    196    198     1  0.0000000  0.6508444  3
    179    178    174    181     1  0.0000000  1.2552000  3
    179    178    190    196     1  0.0000000  0.6508444  3
    179    178    190    191     1  0.0000000  0.6508444  3
    179    178    190    192     1  0.0000000  0.6508444  3
    180    178    174    181     1  0.0000000  1.2552000  3
    180    178    190    196     1  0.0000000  0.6508444  3
    180    178    190    191     1  0.0000000  0.6508444  3
    180    178    190    192     1  0.0000000  0.6508444  3
    181    184    193    194     1  0.0000000  0.6508444  3
    181    184    193    195     1  0.0000000  0.6508444  3
    182    181    184    193     1  0.0000000  0.6508444  3
    182    181    184    185     1  0.0000000  0.6508444  3
    182    181    184    186     1  0.0000000  0.6508444  3
    183    181    184    193     1  0.0000000  0.6508444  3
    183    181    184    185     1  0.0000000  0.6508444  3
    183    181    184    186     1  0.0000000  0.6508444  3
    185    184    193    202     1  0.0000000  1.0460000  1
    185    184    193    202     1  0.0000000  0.0000000  3
    185    184    193    194     1  0.0000000  0.6508444  3
    185    184    193    195     1  0.0000000  0.6508444  3
    186    184    193    202     1  0.0000000  1.0460000  1
    186    184    193    202     1  0.0000000  0.0000000  3
    186    184    193    194     1  0.0000000  0.6508444  3
    186    184    193    195     1  0.0000000  0.6508444  3
    188    187    199    463     1  0.0000000  1.0460000  1
    188    187    199    463     1  0.0000000  0.0000000  3
    188    187    199    200     1  0.0000000  0.6508444  3
    188    187    199    201     1  0.0000000  0.6508444  3
    189    187    199    463     1  0.0000000  1.0460000  1
    189    187    199    463     1  0.0000000  0.0000000  3
    189    187    199    200     1  0.0000000  0.6508444  3
    189    187    199    201     1  0.0000000  0.6508444  3
    191    190    196    434     1  0.0000000  1.0460000  1
    191    190    196    434     1  0.0000000  0.0000000  3
    191    190    196    197     1  0.0000000  0.6508444  3
    191    190    196    198     1  0.0000000  0.6508444  3
    192    190    196    434     1  0.0000000  1.0460000  1
    192    190    196    434     1  0.0000000  0.0000000  3
    192    190    196    197     1  0.0000000  0.6508444  3
    192    190    196    198     1  0.0000000  0.6508444  3
    196    434    425    426     1  0.0000000  1.6038667  3
    196    434    425    427     1  0.0000000  1.6038667  3
    197    196    434    425     1  0.0000000  1.6038667  3
    198    196    434    425     1  0.0000000  1.6038667  3
    199    463    454    455     1  0.0000000  1.6038667  3
    199    463    454    456     1  0.0000000  1.6038667  3
    200    199    463    454     1  0.0000000  1.6038667  3
    201    199    463    454     1  0.0000000  1.6038667  3
    203    204    216    217     1  0.0000000  0.6508444  3
    203    204    216    218     1  0.0000000  0.6508444  3
    203    207    219    220     1  0.0000000  0.6508444  3
    203    207    219    221     1  0.0000000  0.6508444  3
    203    210    213    214     1  0.0000000  0.6508444  3
    203    210    213    215     1  0.0000000  0.6508444  3
    204    203    207    208     1  0.0000000  1.2552000  3
    204    203    207    209     1  0.0000000  1.2552000  3
    204    203    210    211     1  0.0000000  1.2552000  3
    204    203    210    212     1  0.0000000  1.2552000  3
    204    216    228    229     1  0.0000000  0.6508444  3
    204    216    228    230     1  0.0000000  0.6508444  3
    205    204    203    207     1  0.0000000  1.2552000  3
    205    204    203    210     1  0.0000000  1.2552000  3
    205    204    216    228     1  0.0000000  0.6508444  3
    205    204    216    217     1  0.0000000  0.6508444  3
    205    204    216    218     1  0.0000000  0.6508444  3
    206    204    203    207     1  0.0000000  1.2552000  3
    206    204    203    210     1  0.0000000  1.2552000  3
    206    204    216    228     1  0.0000000  0.6508444  3
    206    204    216    217     1  0.0000000  0.6508444  3
    206    204    216    218     1  0.0000000  0.6508444  3
    207    203    210    211     1  0.0000000  1.2552000  3
    207    203    210    212     1  0.0000000  1.2552000  3
    207    219    225    226     1  0.0000000  0.6508444  3
    207    219    225    227     1  0.0000000  0.6508444  3
    208    207    203    210     1  0.0000000  1.2552000  3
    208    207    219    225     1  0.0000000  0.6508444  3
    208    207    219    220     1  0.0000000  0.6508444  3
    208    207    219    221     1  0.0000000  0.6508444  3
    209    207    203    210     1  0.0000000  1.2552000  3
    209    207    219    225     1  0.0000000  0.6508444  3
    209    207    219    220     1  0.0000000  0.6508444  3
    209    207    219    221     1  0.0000000  0.6508444  3
    210    213    222    223     1  0.0000000  0.6508444  3
    210    213    222    224     1  0.0000000  0.6508444  3
    211    210    213    222     1  0.0000000  0.6508444  3
    211    210    213    214     1  0.0000000  0.6508444  3
    211    210    213    215     1  0.0000000  0.6508444  3
    212    210    213    222     1  0.0000000  0.6508444  3
    212    210    213    214     1  0.0000000  0.6508444  3
    212    210    213    215     1  0.0000000  0.6508444  3
    214    213    222    231     1  0.0000000  1.0460000  1
    214    213    222    231     1  0.0000000  0.0000000  3
    214    213    222    223     1  0.0000000  0.6508444  3
    214    213    222    224     1  0.0000000  0.6508444  3
    215    213    222    231     1  0.0000000  1.0460000  1
    215    213    222    231     1  0.0000000  0.0000000  3
    215    213    222    223     1  0.0000000  0.6508444  3
    215    213    222    224     1  0.0000000  0.6508444  3
    217    216    228    521     1  0.0000000  1.0460000  1
    217    216    228    521     1  0.0000000  0.0000000  3
    217    216    228    229     1  0.0000000  0.6508444  3
    217    216    228    230     1  0.0000000  0.6508444  3
    218    216    228    521     1  0.0000000  1.0460000  1
    218    216    228    521     1  0.0000000  0.0000000  3
    218    216    228    229     1  0.0000000  0.6508444  3
    218    216    228    230     1  0.0000000  0.6508444  3
    220    219    225    492     1  0.0000000  1.0460000  1
    220    219    225    492     1  0.0000000  0.0000000  3
    220    219    225    226     1  0.0000000  0.6508444  3
    220    219    225    227     1  0.0000000  0.6508444  3
    221    219    225    492     1  0.0000000  1.0460000  1
    221    219    225    492     1  0.0000000  0.0000000  3
    221    219    225    226     1  0.0000000  0.6508444  3
    221    219    225    227     1  0.0000000  0.6508444  3
    225    492    483    484     1  0.0000000  1.6038667  3
    225    492    483    485     1  0.0000000  1.6038667  3
    226    225    492    483     1  0.0000000  1.6038667  3
    227    225    492    483     1  0.0000000  1.6038667  3
    228    521    512    513     1  0.0000000  1.6038667  3
    228    521    512    514     1  0.0000000  1.6038667  3
    229    228    521    512     1  0.0000000  1.6038667  3
    230    228    521    512     1  0.0000000  1.6038667  3
    232    233    245    246     1  0.0000000  0.6508444  3
    232    233    245    247     1  0.0000000  0.6508444  3
    232    236    248    249     1  0.0000000  0.6508444  3
    232    236    248    250     1  0.0000000  0.6508444  3
    232    239    242    243     1  0.0000000  0.6508444  3
    232    239    242    244     1  0.0000000  0.6508444  3
    233    232    236    237     1  0.0000000  1.2552000  3
    233    232    236    238     1  0.0000000  1.2552000  3
    233    232    239    240     1  0.0000000  1.2552000  3
    233    232    239    241     1  0.0000000  1.2552000  3
    233    245    257    258     1  0.0000000  0.6508444  3
    233    245    257    259     1  0.0000000  0.6508444  3
    234    233    232    236     1  0.0000000  1.2552000  3
    234    233    232    239     1  0.0000000  1.2552000  3
    234    233    245    257     1  0.0000000  0.6508444  3
    234    233    245    246     1  0.0000000  0.6508444  3
    234    233    245    247     1  0.0000000  0.6508444  3
    235    233    232    236     1  0.0000000  1.2552000  3
    235    233    232    239     1  0.0000000  1.2552000  3
    235    233    245    257     1  0.0000000  0.6508444  3
    235    233    245    246     1  0.0000000  0.6508444  3
    235    233    245    247     1  0.0000000  0.6508444  3
    236    232    239    240     1  0.0000000  1.2552000  3
    236    232    239    241     1  0.0000000  1.2552000  3
    236    248    254    255     1  0.0000000  0.6508444  3
    236    248    254    256     1  0.0000000  0.6508444  3
    237    236    232    239     1  0.0000000  1.2552000  3
    237    236    248    254     1  0.0000000  0.6508444  3
    237    236    248    249     1  0.0000000  0.6508444  3
    237    236    248    250     1  0.0000000  0.6508444  3
    238    236    232    239     1  0.0000000  1.2552000  3
    238    236    248    254     1  0.0000000  0.6508444  3
    238    236    248    249     1  0.0000000  0.6508444  3
    238    236    248    250     1  0.0000000  0.6508444  3
    239    242    251    252     1  0.0000000  0.6508444  3
    239    242    251    253     1  0.0000000  0.6508444  3
    240    239    242    251     1  0.0000000  0.6508444  3
    240    239    242    243     1  0.0000000  0.6508444  3
    240    239    242    244     1  0.0000000  0.6508444  3
    241    239    242    251     1  0.0000000  0.6508444  3
    241    239    242    243     1  0.0000000  0.6508444  3
    241    239    242    244     1  0.0000000  0.6508444  3
    243    242    251    260     1  0.0000000  1.0460000  1
    243    242    251    260     1  0.0000000  0.0000000  3
    243    242    251    252     1  0.0000000  0.6508444  3
    243    242    251    253     1  0.0000000  0.6508444  3
    244    242    251    260     1  0.0000000  1.0460000  1
    244    242    251    260     1  0.0000000  0.0000000  3
    244    242    251    252     1  0.0000000  0.6508444  3
    244    242    251    253     1  0.0000000  0.6508444  3
    246    245    257    579     1  0.0000000  1.0460000  1
    246    245    257    579     1  0.0000000  0.0000000  3
    246    245    257    258     1  0.0000000  0.6508444  3
    246    245    257    259     1  0.0000000  0.6508444  3
    247    245    257    579     1  0.0000000  1.0460000  1
    247    245    257    579     1  0.0000000  0.0000000  3
    247    245    257    258     1  0.0000000  0.6508444  3
    247    245    257    259     1  0.0000000  0.6508444  3
    249    248    254    550     1  0.0000000  1.0460000  1
    249    248    254    550     1  0.0000000  0.0000000  3
    249    248    254    255     1  0.0000000  0.6508444  3
    249    248    254    256     1  0.0000000  0.6508444  3
    250    248    254    550     1  0.0000000  1.0460000  1
    250    248    254    550     1  0.0000000  0.0000000  3
    250    248    254    255     1  0.0000000  0.6508444  3
    250    248    254    256     1  0.0000000  0.6508444  3
    254    550    541    542     1  0.0000000  1.6038667  3
    254    550    541    543     1  0.0000000  1.6038667  3
    255    254    550    541     1  0.0000000  1.6038667  3
    256    254    550    541     1  0.0000000  1.6038667  3
    257    579    570    571     1  0.0000000  1.6038667  3
    257    579    570    572     1  0.0000000  1.6038667  3
    258    257    579    570     1  0.0000000  1.6038667  3
    259    257    579    570     1  0.0000000  1.6038667  3
    261    262    274    275     1  0.0000000  0.6508444  3
    261    262    274    276     1  0.0000000  0.6508444  3
    261    265    277    278     1  0.0000000  0.6508444  3
    261    265    277    279     1  0.0000000  0.6508444  3
    261    268    271    272     1  0.0000000  0.6508444  3
    261    268    271    273     1  0.0000000  0.6508444  3
    262    261    265    266     1  0.0000000  1.2552000  3
    262    261    265    267     1  0.0000000  1.2552000  3
    262    261    268    269     1  0.0000000  1.2552000  3
    262    261    268    270     1  0.0000000  1.2552000  3
    262    274    286    287     1  0.0000000  0.6508444  3
    262    274    286    288     1  0.0000000  0.6508444  3
    263    262    261    265     1  0.0000000  1.2552000  3
    263    262    261    268     1  0.0000000  1.2552000  3
    263    262    274    286     1  0.0000000  0.6508444  3
    263    262    274    275     1  0.0000000  0.6508444  3
    263    262    274    276     1  0.0000000  0.6508444  3
    264    262    261    265     1  0.0000000  1.2552000  3
    264    262    261    268     1  0.0000000  1.2552000  3
    264    262    274    286     1  0.0000000  0.6508444  3
    264    262    274    275     1  0.0000000  0.6508444  3
    264    262    274    276     1  0.0000000  0.6508444  3
    265    261    268    269     1  0.0000000  1.2552000  3
    265    261    268    270     1  0.0000000  1.2552000  3
    265    277    283    284     1  0.0000000  0.6508444  3
    265    277    283    285     1  0.0000000  0.6508444  3
    266    265    261    268     1  0.0000000  1.2552000  3
    266    265    277    283     1  0.0000000  0.6508444  3
    266    265    277    278     1  0.0000000  0.6508444  3
    266    265    277    279     1  0.0000000  0.6508444  3
    267    265    261    268     1  0.0000000  1.2552000  3
    267    265    277    283     1  0.0000000  0.6508444  3
    267    265    277    278     1  0.0000000  0.6508444  3
    267    265    277    279     1  0.0000000  0.6508444  3
    268    271    280    281     1  0.0000000  0.6508444  3
    268    271    280    282     1  0.0000000  0.6508444  3
    269    268    271    280     1  0.0000000  0.6508444  3
    269    268    271    272     1  0.0000000  0.6508444  3
    269    268    271    273     1  0.0000000  0.6508444  3
    270    268    271    280     1  0.0000000  0.6508444  3
    270    268    271    272     1  0.0000000  0.6508444  3
    270    268    271    273     1  0.0000000  0.6508444  3
    272    271    280    289     1  0.0000000  1.0460000  1
    272    271    280    289     1  0.0000000  0.0000000  3
    272    271    280    281     1  0.0000000  0.6508444  3
    272    271    280    282     1  0.0000000  0.6508444  3
    273    271    280    289     1  0.0000000  1.0460000  1
    273    271    280    289     1  0.0000000  0.0000000  3
    273    271    280    281     1  0.0000000  0.6508444  3
    273    271    280    282     1  0.0000000  0.6508444  3
    275    274    286    637     1  0.0000000  1.0460000  1
    275    274    286    637     1  0.0000000  0.0000000  3
    275    274    286    287     1  0.0000000  0.6508444  3
    275    274    286    288     1  0.0000000  0.6508444  3
    276    274    286    637     1  0.0000000  1.0460000  1
    276    274    286    637     1  0.0000000  0.0000000  3
    276    274    286    287     1  0.0000000  0.6508444  3
    276    274    286    288     1  0.0000000  0.6508444  3
    278    277    283    608     1  0.0000000  1.0460000  1
    278    277    283    608     1  0.0000000  0.0000000  3
    278    277    283    284     1  0.0000000  0.6508444  3
    278    277    283    285     1  0.0000000  0.6508444  3
    279    277    283    608     1  0.0000000  1.0460000  1
    279    277    283    608     1  0.0000000  0.0000000  3
    279    277    283    284     1  0.0000000  0.6508444  3
    279    277    283    285     1  0.0000000  0.6508444  3
    283    608    599    600     1  0.0000000  1.6038667  3
    283    608    599    601     1  0.0000000  1.6038667  3
    284    283    608    599     1  0.0000000  1.6038667  3
    285    283    608    599     1  0.0000000  1.6038667  3
    286    637    628    629     1  0.0000000  1.6038667  3
    286    637    628    630     1  0.0000000  1.6038667  3
    287    286    637    628     1  0.0000000  1.6038667  3
    288    286    637    628     1  0.0000000  1.6038667  3
    290    291    303    304     1  0.0000000  0.6508444  3
    290    291    303    305     1  0.0000000  0.6508444  3
    290    294    306    307     1  0.0000000  0.6508444  3
    290    294    306    308     1  0.0000000  0.6508444  3
    290    297    300    301     1  0.0000000  0.6508444  3
    290    297    300    302     1  0.0000000  0.6508444  3
    291    290    294    295     1  0.0000000  1.2552000  3
    291    290    294    296     1  0.0000000  1.2552000  3
    291    290    297    298     1  0.0000000  1.2552000  3
    291    290    297    299     1  0.0000000  1.2552000  3
    291    303    315    316     1  0.0000000  0.6508444  3
    291    303    315    317     1  0.0000000  0.6508444  3
    292    291    290    294     1  0.0000000  1.2552000  3
    292    291    290    297     1  0.0000000  1.2552000  3
    292    291    303    315     1  0.0000000  0.6508444  3
    292    291    303    304     1  0.0000000  0.6508444  3
    292    291    303    305     1  0.0000000  0.6508444  3
    293    291    290    294     1  0.0000000  1.2552000  3
    293    291    290    297     1  0.0000000  1.2552000  3
    293    291    303    315     1  0.0000000  0.6508444  3
    293    291    303    304     1  0.0000000  0.6508444  3
    293    291    303    305     1  0.0000000  0.6508444  3
    294    290    297    298     1  0.0000000  1.2552000  3
    294    290    297    299     1  0.0000000  1.2552000  3
    294    306    312    313     1  0.0000000  0.6508444  3
    294    306    312    314     1  0.0000000  0.6508444  3
    295    294    290    297     1  0.0000000  1.2552000  3
    295    294    306    312     1  0.0000000  0.6508444  3
    295    294    306    307     1  0.0000000  0.6508444  3
    295    294    306    308     1  0.0000000  0.6508444  3
    296    294    290    297     1  0.0000000  1.2552000  3
    296    294    306    312     1  0.0000000  0.6508444  3
    296    294    306    307     1  0.0000000  0.6508444  3
    296    294    306    308     1  0.0000000  0.6508444  3
    297    300    309    310     1  0.0000000  0.6508444  3
    297    300    309    311     1  0.0000000  0.6508444  3
    298    297    300    309     1  0.0000000  0.6508444  3
    298    297    300    301     1  0.0000000  0.6508444  3
    298    297    300    302     1  0.0000000  0.6508444  3
    299    297    300    309     1  0.0000000  0.6508444  3
    299    297    300    301     1  0.0000000  0.6508444  3
    299    297    300    302     1  0.0000000  0.6508444  3
    301    300    309    318     1  0.0000000  1.0460000  1
    301    300    309    318     1  0.0000000  0.0000000  3
    301    300    309    310     1  0.0000000  0.6508444  3
    301    300    309    311     1  0.0000000  0.6508444  3
    302    300    309    318     1  0.0000000  1.0460000  1
    302    300    309    318     1  0.0000000  0.0000000  3
    302    300    309    310     1  0.0000000  0.6508444  3
    302    300    309    311     1  0.0000000  0.6508444  3
    304    303    315    695     1  0.0000000  1.0460000  1
    304    303    315    695     1  0.0000000  0.0000000  3
    304    303    315    316     1  0.0000000  0.6508444  3
    304    303    315    317     1  0.0000000  0.6508444  3
    305    303    315    695     1  0.0000000  1.0460000  1
    305    303    315    695     1  0.0000000  0.0000000  3
    305    303    315    316     1  0.0000000  0.6508444  3
    305    303    315    317     1  0.0000000  0.6508444  3
    307    306    312    666     1  0.0000000  1.0460000  1
    307    306    312    666     1  0.0000000  0.0000000  3
    307    306    312    313     1  0.0000000  0.6508444  3
    307    306    312    314     1  0.0000000  0.6508444  3
    308    306    312    666     1  0.0000000  1.0460000  1
    308    306    312    666     1  0.0000000  0.0000000  3
    308    306    312    313     1  0.0000000  0.6508444  3
    308    306    312    314     1  0.0000000  0.6508444  3
    312    666    657    658     1  0.0000000  1.6038667  3
    312    666    657    659     1  0.0000000  1.6038667  3
    313    312    666    657     1  0.0000000  1.6038667  3
    314    312    666    657     1  0.0000000  1.6038667  3
    315    695    686    687     1  0.0000000  1.6038667  3
    315    695    686    688     1  0.0000000  1.6038667  3
    316    315    695    686     1  0.0000000  1.6038667  3
    317    315    695    686     1  0.0000000  1.6038667  3
    319    320    332    333     1  0.0000000  0.6508444  3
    319    320    332    334     1  0.0000000  0.6508444  3
    319    323    335    336     1  0.0000000  0.6508444  3
    319    323    335    337     1  0.0000000  0.6508444  3
    319    326    329    330     1  0.0000000  0.6508444  3
    319    326    329    331     1  0.0000000  0.6508444  3
    320    319    323    324     1  0.0000000  1.2552000  3
    320    319    323    325     1  0.0000000  1.2552000  3
    320    319    326    327     1  0.0000000  1.2552000  3
    320    319    326    328     1  0.0000000  1.2552000  3
    320    332    344    345     1  0.0000000  0.6508444  3
    320    332    344    346     1  0.0000000  0.6508444  3
    321    320    319    323     1  0.0000000  1.2552000  3
    321    320    319    326     1  0.0000000  1.2552000  3
    321    320    332    344     1  0.0000000  0.6508444  3
    321    320    332    333     1  0.0000000  0.6508444  3
    321    320    332    334     1  0.0000000  0.6508444  3
    322    320    319    323     1  0.0000000  1.2552000  3
    322    320    319    326     1  0.0000000  1.2552000  3
    322    320    332    344     1  0.0000000  0.6508444  3
    322    320    332    333     1  0.0000000  0.6508444  3
    322    320    332    334     1  0.0000000  0.6508444  3
    323    319    326    327     1  0.0000000  1.2552000  3
    323    319    326    328     1  0.0000000  1.2552000  3
    323    335    341    342     1  0.0000000  0.6508444  3
    323    335    341    343     1  0.0000000  0.6508444  3
    324    323    319    326     1  0.0000000  1.2552000  3
    324    323    335    341     1  0.0000000  0.6508444  3
    324    323    335    336     1  0.0000000  0.6508444  3
    324    323    335    337     1  0.0000000  0.6508444  3
    325    323    319    326     1  0.0000000  1.2552000  3
    325    323    335    341     1  0.0000000  0.6508444  3
    325    323    335    336     1  0.0000000  0.6508444  3
    325    323    335    337     1  0.0000000  0.6508444  3
    326    329    338    339     1  0.0000000  0.6508444  3
    326    329    338    340     1  0.0000000  0.6508444  3
    327    326    329    338     1  0.0000000  0.6508444  3
    327    326    329    330     1  0.0000000  0.6508444  3
    327    326    329    331     1  0.0000000  0.6508444  3
    328    326    329    338     1  0.0000000  0.6508444  3
    328    326    329    330     1  0.0000000  0.6508444  3
    328    326    329    331     1  0.0000000  0.6508444  3
    330    329    338    347     1  0.0000000  1.0460000  1
    330    329    338    347     1  0.0000000  0.0000000  3
    330    329    338    339     1  0.0000000  0.6508444  3
    330    329    338    340     1  0.0000000  0.6508444  3
    331    329    338    347     1  0.0000000  1.0460000  1
    331    329    338    347     1  0.0000000  0.0000000  3
    331    329    338    339     1  0.0000000  0.6508444  3
    331    329    338    340     1  0.0000000  0.6508444  3
    333    332    344    753     1  0.0000000  1.0460000  1
    333    332    344    753     1  0.0000000  0.0000000  3
    333    332    344    345     1  0.0000000  0.6508444  3
    333    332    344    346     1  0.0000000  0.6508444  3
    334    332    344    753     1  0.0000000  1.0460000  1
    334    332    344    753     1  0.0000000  0.0000000  3
    334    332    344    345     1  0.0000000  0.6508444  3
    334    332    344    346     1  0.0000000  0.6508444  3
    336    335    341    724     1  0.0000000  1.0460000  1
    336    335    341    724     1  0.0000000  0.0000000  3
    336    335    341    342     1  0.0000000  0.6508444  3
    336    335    341    343     1  0.0000000  0.6508444  3
    337    335    341    724     1  0.0000000  1.0460000  1
    337    335    341    724     1  0.0000000  0.0000000  3
    337    335    341    342     1  0.0000000  0.6508444  3
    337    335    341    343     1  0.0000000  0.6508444  3
    341    724    715    716     1  0.0000000  1.6038667  3
    341    724    715    717     1  0.0000000  1.6038667  3
    342    341    724    715     1  0.0000000  1.6038667  3
    343    341    724    715     1  0.0000000  1.6038667  3
    344    753    744    745     1  0.0000000  1.6038667  3
    344    753    744    746     1  0.0000000  1.6038667  3
    345    344    753    744     1  0.0000000  1.6038667  3
    346    344    753    744     1  0.0000000  1.6038667  3
    348    349    361    362     1  0.0000000  0.6508444  3
    348    349    361    363     1  0.0000000  0.6508444  3
    348    352    364    365     1  0.0000000  0.6508444  3
    348    352    364    366     1  0.0000000  0.6508444  3
    348    355    358    359     1  0.0000000  0.6508444  3
    348    355    358    360     1  0.0000000  0.6508444  3
    349    348    352    353     1  0.0000000  1.2552000  3
    349    348    352    354     1  0.0000000  1.2552000  3
    349    348    355    356     1  0.0000000  1.2552000  3
    349    348    355    357     1  0.0000000  1.2552000  3
    349    361    373    374     1  0.0000000  0.6508444  3
    349    361    373    375     1  0.0000000  0.6508444  3
    350    349    348    352     1  0.0000000  1.2552000  3
    350    349    348    355     1  0.0000000  1.2552000  3
    350    349    361    373     1  0.0000000  0.6508444  3
    350    349    361    362     1  0.0000000  0.6508444  3
    350    349    361    363     1  0.0000000  0.6508444  3
    351    349    348    352     1  0.0000000  1.2552000  3
    351    349    348    355     1  0.0000000  1.2552000  3
    351    349    361    373     1  0.0000000  0.6508444  3
    351    349    361    362     1  0.0000000  0.6508444  3
    351    349    361    363     1  0.0000000  0.6508444  3
    352    348    355    356     1  0.0000000  1.2552000  3
    352    348    355    357     1  0.0000000  1.2552000  3
    352    364    370    371     1  0.0000000  0.6508444  3
    352    364    370    372     1  0.0000000  0.6508444  3
    353    352    348    355     1  0.0000000  1.2552000  3
    353    352    364    370     1  0.0000000  0.6508444  3
    353    352    364    365     1  0.0000000  0.6508444  3
    353    352    364    366     1  0.0000000  0.6508444  3
    354    352    348    355     1  0.0000000  1.2552000  3
    354    352    364    370     1  0.0000000  0.6508444  3
    354    352    364    365     1  0.0000000  0.6508444  3
    354    352    364    366     1  0.0000000  0.6508444  3
    355    358    367    368     1  0.0000000  0.6508444  3
    355    358    367    369     1  0.0000000  0.6508444  3
    356    355    358    367     1  0.0000000  0.6508444  3
    356    355    358    359     1  0.0000000  0.6508444  3
    356    355    358    360     1  0.0000000  0.6508444  3
    357    355    358    367     1  0.0000000  0.6508444  3
    357    355    358    359     1  0.0000000  0.6508444  3
    357    355    358    360     1  0.0000000  0.6508444  3
    359    358    367    376     1  0.0000000  1.0460000  1
    359    358    367    376     1  0.0000000  0.0000000  3
    359    358    367    368     1  0.0000000  0.6508444  3
    359    358    367    369     1  0.0000000  0.6508444  3
    360    358    367    376     1  0.0000000  1.0460000  1
    360    358    367    376     1  0.0000000  0.0000000  3
    360    358    367    368     1  0.0000000  0.6508444  3
    360    358    367    369     1  0.0000000  0.6508444  3
    362    361    373    811     1  0.0000000  1.0460000  1
    362    361    373    811     1  0.0000000  0.0000000  3
    362    361    373    374     1  0.0000000  0.6508444  3
    362    361    373    375     1  0.0000000  0.6508444  3
    363    361    373    811     1  0.0000000  1.0460000  1
    363    361    373    811     1  0.0000000  0.0000000  3
    363    361    373    374     1  0.0000000  0.6508444  3
    363    361    373    375     1  0.0000000  0.6508444  3
    365    364    370    782     1  0.0000000  1.0460000  1
    365    364    370    782     1  0.0000000  0.0000000  3
    365    364    370    371     1  0.0000000  0.6508444  3
    365    364    370    372     1  0.0000000  0.6508444  3
    366    364    370    782     1  0.0000000  1.0460000  1
    366    364    370    782     1  0.0000000  0.0000000  3
    366    364    370    371     1  0.0000000  0.6508444  3
    366    364    370    372     1  0.0000000  0.6508444  3
    370    782    773    774     1  0.0000000  1.6038667  3
    370    782    773    775     1  0.0000000  1.6038667  3
    371    370    782    773     1  0.0000000  1.6038667  3
    372    370    782    773     1  0.0000000  1.6038667  3
    373    811    802    803     1  0.0000000  1.6038667  3
    373    811    802    804     1  0.0000000  1.6038667  3
    374    373    811    802     1  0.0000000  1.6038667  3
    375    373    811    802     1  0.0000000  1.6038667  3
    377    378    390    391     1  0.0000000  0.6508444  3
    377    378    390    392     1  0.0000000  0.6508444  3
    377    381    393    394     1  0.0000000  0.6508444  3
    377    381    393    395     1  0.0000000  0.6508444  3
    377    384    387    388     1  0.0000000  0.6508444  3
    377    384    387    389     1  0.0000000  0.6508444  3
    378    377    381    382     1  0.0000000  1.2552000  3
    378    377    381    383     1  0.0000000  1.2552000  3
    378    377    384    385     1  0.0000000  1.2552000  3
    378    377    384    386     1  0.0000000  1.2552000  3
    378    390    402    403     1  0.0000000  0.6508444  3
    378    390    402    404     1  0.0000000  0.6508444  3
    379    378    377    381     1  0.0000000  1.2552000  3
    379    378    377    384     1  0.0000000  1.2552000  3
    379    378    390    402     1  0.0000000  0.6508444  3
    379    378    390    391     1  0.0000000  0.6508444  3
    379    378    390    392     1  0.0000000  0.6508444  3
    380    378    377    381     1  0.0000000  1.2552000  3
    380    378    377    384     1  0.0000000  1.2552000  3
    380    378    390    402     1  0.0000000  0.6508444  3
    380    378    390    391     1  0.0000000  0.6508444  3
    380    378    390    392     1  0.0000000  0.6508444  3
    381    377    384    385     1  0.0000000  1.2552000  3
    381    377    384    386     1  0.0000000  1.2552000  3
    381    393    399    400     1  0.0000000  0.6508444  3
    381    393    399    401     1  0.0000000  0.6508444  3
    382    381    377    384     1  0.0000000  1.2552000  3
    382    381    393    399     1  0.0000000  0.6508444  3
    382    381    393    394     1  0.0000000  0.6508444  3
    382    381    393    395     1  0.0000000  0.6508444  3
    383    381    377    384     1  0.0000000  1.2552000  3
    383    381    393    399     1  0.0000000  0.6508444  3
    383    381    393    394     1  0.0000000  0.6508444  3
    383    381    393    395     1  0.0000000  0.6508444  3
    384    387    396    397     1  0.0000000  0.6508444  3
    384    387    396    398     1  0.0000000  0.6508444  3
    385    384    387    396     1  0.0000000  0.6508444  3
    385    384    387    388     1  0.0000000  0.6508444  3
    385    384    387    389     1  0.0000000  0.6508444  3
    386    384    387    396     1  0.0000000  0.6508444  3
    386    384    387    388     1  0.0000000  0.6508444  3
    386    384    387    389     1  0.0000000  0.6508444  3
    388    387    396    405     1  0.0000000  1.0460000  1
    388    387    396    405     1  0.0000000  0.0000000  3
    388    387    396    397     1  0.0000000  0.6508444  3
    388    387    396    398     1  0.0000000  0.6508444  3
    389    387    396    405     1  0.0000000  1.0460000  1
    389    387    396    405     1  0.0000000  0.0000000  3
    389    387    396    397     1  0.0000000  0.6508444  3
    389    387    396    398     1  0.0000000  0.6508444  3
    391    390    402    869     1  0.0000000  1.0460000  1
    391    390    402    869     1  0.0000000  0.0000000  3
    391    390    402    403     1  0.0000000  0.6508444  3
    391    390    402    404     1  0.0000000  0.6508444  3
    392    390    402    869     1  0.0000000  1.0460000  1
    392    390    402    869     1  0.0000000  0.0000000  3
    392    390    402    403     1  0.0000000  0.6508444  3
    392    390    402    404     1  0.0000000  0.6508444  3
    394    393    399    840     1  0.0000000  1.0460000  1
    394    393    399    840     1  0.0000000  0.0000000  3
    394    393    399    400     1  0.0000000  0.6508444  3
    394    393    399    401     1  0.0000000  0.6508444  3
    395    393    399    840     1  0.0000000  1.0460000  1
    395    393    399    840     1  0.0000000  0.0000000  3
    395    393    399    400     1  0.0000000  0.6508444  3
    395    393    399    401     1  0.0000000  0.6508444  3
    399    840    831    832     1  0.0000000  1.6038667  3
    399    840    831    833     1  0.0000000  1.6038667  3
    400    399    840    831     1  0.0000000  1.6038667  3
    401    399    840    831     1  0.0000000  1.6038667  3
    402    869    860    861     1  0.0000000  1.6038667  3
    402    869    860    862     1  0.0000000  1.6038667  3
    403    402    869    860     1  0.0000000  1.6038667  3
    404    402    869    860     1  0.0000000  1.6038667  3
    406    407    419    420     1  0.0000000  0.6508444  3
    406    407    419    421     1  0.0000000  0.6508444  3
    406    410    422    423     1  0.0000000  0.6508444  3
    406    410    422    424     1  0.0000000  0.6508444  3
    406    413    416    417     1  0.0000000  0.6508444  3
    406    413    416    418     1  0.0000000  0.6508444  3
    407    406    410    411     1  0.0000000  1.2552000  3
    407    406    410    412     1  0.0000000  1.2552000  3
    407    406    413    414     1  0.0000000  1.2552000  3
    407    406    413    415     1  0.0000000  1.2552000  3
    407    419    431    432     1  0.0000000  0.6508444  3
    407    419    431    433     1  0.0000000  0.6508444  3
    408    407    406    410     1  0.0000000  1.2552000  3
    408    407    406    413     1  0.0000000  1.2552000  3
    408    407    419    431     1  0.0000000  0.6508444  3
    408    407    419    420     1  0.0000000  0.6508444  3
    408    407    419    421     1  0.0000000  0.6508444  3
    409    407    406    410     1  0.0000000  1.2552000  3
    409    407    406    413     1  0.0000000  1.2552000  3
    409    407    419    431     1  0.0000000  0.6508444  3
    409    407    419    420     1  0.0000000  0.6508444  3
    409    407    419    421     1  0.0000000  0.6508444  3
    410    406    413    414     1  0.0000000  1.2552000  3
    410    406    413    415     1  0.0000000  1.2552000  3
    410    422    428    429     1  0.0000000  0.6508444  3
    410    422    428    430     1  0.0000000  0.6508444  3
    411    410    406    413     1  0.0000000  1.2552000  3
    411    410    422    428     1  0.0000000  0.6508444  3
    411    410    422    423     1  0.0000000  0.6508444  3
    411    410    422    424     1  0.0000000  0.6508444  3
    412    410    406    413     1  0.0000000  1.2552000  3
    412    410    422    428     1  0.0000000  0.6508444  3
    412    410    422    423     1  0.0000000  0.6508444  3
    412    410    422    424     1  0.0000000  0.6508444  3
    413    416    425    426     1  0.0000000  0.6508444  3
    413    416    425    427     1  0.0000000  0.6508444  3
    414    413    416    425     1  0.0000000  0.6508444  3
    414    413    416    417     1  0.0000000  0.6508444  3
    414    413    416    418     1  0.0000000  0.6508444  3
    415    413    416    425     1  0.0000000  0.6508444  3
    415    413    416    417     1  0.0000000  0.6508444  3
    415    413    416    418     1  0.0000000  0.6508444  3
    417    416    425    434     1  0.0000000  1.0460000  1
    417    416    425    434     1  0.0000000  0.0000000  3
    417    416    425    426     1  0.0000000  0.6508444  3
    417    416    425    427     1  0.0000000  0.6508444  3
    418    416    425    434     1  0.0000000  1.0460000  1
    418    416    425    434     1  0.0000000  0.0000000  3
    418    416    425    426     1  0.0000000  0.6508444  3
    418    416    425    427     1  0.0000000  0.6508444  3
    420    419    431    927     1  0.0000000  1.0460000  1
    420    419    431    927     1  0.0000000  0.0000000  3
    420    419    431    432     1  0.0000000  0.6508444  3
    420    419    431    433     1  0.0000000  0.6508444  3
    421    419    431    927     1  0.0000000  1.0460000  1
    421    419    431    927     1  0.0000000  0.0000000  3
    421    419    431    432     1  0.0000000  0.6508444  3
    421    419    431    433     1  0.0000000  0.6508444  3
    423    422    428    898     1  0.0000000  1.0460000  1
    423    422    428    898     1  0.0000000  0.0000000  3
    423    422    428    429     1  0.0000000  0.6508444  3
    423    422    428    430     1  0.0000000  0.6508444  3
    424    422    428    898     1  0.0000000  1.0460000  1
    424    422    428    898     1  0.0000000  0.0000000  3
    424    422    428    429     1  0.0000000  0.6508444  3
    424    422    428    430     1  0.0000000  0.6508444  3
    428    898    889    890     1  0.0000000  1.6038667  3
    428    898    889    891     1  0.0000000  1.6038667  3
    429    428    898    889     1  0.0000000  1.6038667  3
    430    428    898    889     1  0.0000000  1.6038667  3
    431    927    918    919     1  0.0000000  1.6038667  3
    431    927    918    920     1  0.0000000  1.6038667  3
    432    431    927    918     1  0.0000000  1.6038667  3
    433    431    927    918     1  0.0000000  1.6038667  3
    435    436    448    449     1  0.0000000  0.6508444  3
    435    436    448    450     1  0.0000000  0.6508444  3
    435    439    451    452     1  0.0000000  0.6508444  3
    435    439    451    453     1  0.0000000  0.6508444  3
    435    442    445    446     1  0.0000000  0.6508444  3
    435    442    445    447     1  0.0000000  0.6508444  3
    436    435    439    440     1  0.0000000  1.2552000  3
    436    435    439    441     1  0.0000000  1.2552000  3
    436    435    442    443     1  0.0000000  1.2552000  3
    436    435    442    444     1  0.0000000  1.2552000  3
    436    448    460    461     1  0.0000000  0.6508444  3
    436    448    460    462     1  0.0000000  0.6508444  3
    437    436    435    439     1  0.0000000  1.2552000  3
    437    436    435    442     1  0.0000000  1.2552000  3
    437    436    448    460     1  0.0000000  0.6508444  3
    437    436    448    449     1  0.0000000  0.6508444  3
    437    436    448    450     1  0.0000000  0.6508444  3
    438    436    435    439     1  0.0000000  1.2552000  3
    438    436    435    442     1  0.0000000  1.2552000  3
    438    436    448    460     1  0.0000000  0.6508444  3
    438    436    448    449     1  0.0000000  0.6508444  3
    438    436    448    450     1  0.0000000  0.6508444  3
    439    435    442    443     1  0.0000000  1.2552000  3
    439    435    442    444     1  0.0000000  1.2552000  3
    439    451    457    458     1  0.0000000  0.6508444  3
    439    451    457    459     1  0.0000000  0.6508444  3
    440    439    435    442     1  0.0000000  1.2552000  3
    440    439    451    457     1  0.0000000  0.6508444  3
    440    439    451    452     1  0.0000000  0.6508444  3
    440    439    451    453     1  0.0000000  0.6508444  3
    441    439    435    442     1  0.0000000  1.2552000  3
    441    439    451    457     1  0.0000000  0.6508444  3
    441    439    451    452     1  0.0000000  0.6508444  3
    441    439    451    453     1  0.0000000  0.6508444  3
    442    445    454    455     1  0.0000000  0.6508444  3
    442    445    454    456     1  0.0000000  0.6508444  3
    443    442    445    454     1  0.0000000  0.6508444  3
    443    442    445    446     1  0.0000000  0.6508444  3
    443    442    445    447     1  0.0000000  0.6508444  3
    444    442    445    454     1  0.0000000  0.6508444  3
    444    442    445    446     1  0.0000000  0.6508444  3
    444    442    445    447     1  0.0000000  0.6508444  3
    446    445    454    463     1  0.0000000  1.0460000  1
    446    445    454    463     1  0.0000000  0.0000000  3
    446    445    454    455     1  0.0000000  0.6508444  3
    446    445    454    456     1  0.0000000  0.6508444  3
    447    445    454    463     1  0.0000000  1.0460000  1
    447    445    454    463     1  0.0000000  0.0000000  3
    447    445    454    455     1  0.0000000  0.6508444  3
    447    445    454    456     1  0.0000000  0.6508444  3
    449    448    460    985     1  0.0000000  1.0460000  1
    449    448    460    985     1  0.0000000  0.0000000  3
    449    448    460    461     1  0.0000000  0.6508444  3
    449    448    460    462     1  0.0000000  0.6508444  3
    450    448    460    985     1  0.0000000  1.0460000  1
    450    448    460    985     1  0.0000000  0.0000000  3
    450    448    460    461     1  0.0000000  0.6508444  3
    450    448    460    462     1  0.0000000  0.6508444  3
    452    451    457    956     1  0.0000000  1.0460000  1
    452    451    457    956     1  0.0000000  0.0000000  3
    452    451    457    458     1  0.0000000  0.6508444  3
    452    451    457    459     1  0.0000000  0.6508444  3
    453    451    457    956     1  0.0000000  1.0460000  1
    453    451    457    956     1  0.0000000  0.0000000  3
    453    451    457    458     1  0.0000000  0.6508444  3
    453    451    457    459     1  0.0000000  0.6508444  3
    457    956    947    948     1  0.0000000  1.6038667  3
    457    956    947    949     1  0.0000000  1.6038667  3
    458    457    956    947     1  0.0000000  1.6038667  3
    459    457    956    947     1  0.0000000  1.6038667  3
    460    985    976    977     1  0.0000000  1.6038667  3
    460    985    976    978     1  0.0000000  1.6038667  3
    461    460    985    976     1  0.0000000  1.6038667  3
    462    460    985    976     1  0.0000000  1.6038667  3
    464    465    477    478     1  0.0000000  0.6508444  3
    464    465    477    479     1  0.0000000  0.6508444  3
    464    468    480    481     1  0.0000000  0.6508444  3
    464    468    480    482     1  0.0000000  0.6508444  3
    464    471    474    475     1  0.0000000  0.6508444  3
    464    471    474    476     1  0.0000000  0.6508444  3
    465    464    468    469     1  0.0000000  1.2552000  3
    465    464    468    470     1  0.0000000  1.2552000  3
    465    464    471    472     1  0.0000000  1.2552000  3
    465    464    471    473     1  0.0000000  1.2552000  3
    465    477    489    490     1  0.0000000  0.6508444  3
    465    477    489    491     1  0.0000000  0.6508444  3
    466    465    464    468     1  0.0000000  1.2552000  3
    466    465    464    471     1  0.0000000  1.2552000  3
    466    465    477    489     1  0.0000000  0.6508444  3
    466    465    477    478     1  0.0000000  0.6508444  3
    466    465    477    479     1  0.0000000  0.6508444  3
    467    465    464    468     1  0.0000000  1.2552000  3
    467    465    464    471     1  0.0000000  1.2552000  3
    467    465    477    489     1  0.0000000  0.6508444  3
    467    465    477    478     1  0.0000000  0.6508444  3
    467    465    477    479     1  0.0000000  0.6508444  3
    468    464    471    472     1  0.0000000  1.2552000  3
    468    464    471    473     1  0.0000000  1.2552000  3
    468    480    486    487     1  0.0000000  0.6508444  3
    468    480    486    488     1  0.0000000  0.6508444  3
    469    468    464    471     1  0.0000000  1.2552000  3
    469    468    480    486     1  0.0000000  0.6508444  3
    469    468    480    481     1  0.0000000  0.6508444  3
    469    468    480    482     1  0.0000000  0.6508444  3
    470    468    464    471     1  0.0000000  1.2552000  3
    470    468    480    486     1  0.0000000  0.6508444  3
    470    468    480    481     1  0.0000000  0.6508444  3
    470    468    480    482     1  0.0000000  0.6508444  3
    471    474    483    484     1  0.0000000  0.6508444  3
    471    474    483    485     1  0.0000000  0.6508444  3
    472    471    474    483     1  0.0000000  0.6508444  3
    472    471    474    475     1  0.0000000  0.6508444  3
    472    471    474    476     1  0.0000000  0.6508444  3
    473    471    474    483     1  0.0000000  0.6508444  3
    473    471    474    475     1  0.0000000  0.6508444  3
    473    471    474    476     1  0.0000000  0.6508444  3
    475    474    483    492     1  0.0000000  1.0460000  1
    475    474    483    492     1  0.0000000  0.0000000  3
    475    474    483    484     1  0.0000000  0.6508444  3
    475    474    483    485     1  0.0000000  0.6508444  3
    476    474    483    492     1  0.0000000  1.0460000  1
    476    474    483    492     1  0.0000000  0.0000000  3
    476    474    483    484     1  0.0000000  0.6508444  3
    476    474    483    485     1  0.0000000  0.6508444  3
    478    477    489   1043     1  0.0000000  1.0460000  1
    478    477    489   1043     1  0.0000000  0.0000000  3
    478    477    489    490     1  0.0000000  0.6508444  3
    478    477    489    491     1  0.0000000  0.6508444  3
    479    477    489   1043     1  0.0000000  1.0460000  1
    479    477    489   1043     1  0.0000000  0.0000000  3
    479    477    489    490     1  0.0000000  0.6508444  3
    479    477    489    491     1  0.0000000  0.6508444  3
    481    480    486   1014     1  0.0000000  1.0460000  1
    481    480    486   1014     1  0.0000000  0.0000000  3
    481    480    486    487     1  0.0000000  0.6508444  3
    481    480    486    488     1  0.0000000  0.6508444  3
    482    480    486   1014     1  0.0000000  1.0460000  1
    482    480    486   1014     1  0.0000000  0.0000000  3
    482    480    486    487     1  0.0000000  0.6508444  3
    482    480    486    488     1  0.0000000  0.6508444  3
    486   1014   1005   1006     1  0.0000000  1.6038667  3
    486   1014   1005   1007     1  0.0000000  1.6038667  3
    487    486   1014   1005     1  0.0000000  1.6038667  3
    488    486   1014   1005     1  0.0000000  1.6038667  3
    489   1043   1034   1035     1  0.0000000  1.6038667  3
    489   1043   1034   1036     1  0.0000000  1.6038667  3
    490    489   1043   1034     1  0.0000000  1.6038667  3
    491    489   1043   1034     1  0.0000000  1.6038667  3
    493    494    506    507     1  0.0000000  0.6508444  3
    493    494    506    508     1  0.0000000  0.6508444  3
    493    497    509    510     1  0.0000000  0.6508444  3
    493    497    509    511     1  0.0000000  0.6508444  3
    493    500    503    504     1  0.0000000  0.6508444  3
    493    500    503    505     1  0.0000000  0.6508444  3
    494    493    497    498     1  0.0000000  1.2552000  3
    494    493    497    499     1  0.0000000  1.2552000  3
    494    493    500    501     1  0.0000000  1.2552000  3
    494    493    500    502     1  0.0000000  1.2552000  3
    494    506    518    519     1  0.0000000  0.6508444  3
    494    506    518    520     1  0.0000000  0.6508444  3
    495    494    493    497     1  0.0000000  1.2552000  3
    495    494    493    500     1  0.0000000  1.2552000  3
    495    494    506    518     1  0.0000000  0.6508444  3
    495    494    506    507     1  0.0000000  0.6508444  3
    495    494    506    508     1  0.0000000  0.6508444  3
    496    494    493    497     1  0.0000000  1.2552000  3
    496    494    493    500     1  0.0000000  1.2552000  3
    496    494    506    518     1  0.0000000  0.6508444  3
    496    494    506    507     1  0.0000000  0.6508444  3
    496    494    506    508     1  0.0000000  0.6508444  3
    497    493    500    501     1  0.0000000  1.2552000  3
    497    493    500    502     1  0.0000000  1.2552000  3
    497    509    515    516     1  0.0000000  0.6508444  3
    497    509    515    517     1  0.0000000  0.6508444  3
    498    497    493    500     1  0.0000000  1.2552000  3
    498    497    509    515     1  0.0000000  0.6508444  3
    498    497    509    510     1  0.0000000  0.6508444  3
    498    497    509    511     1  0.0000000  0.6508444  3
    499    497    493    500     1  0.0000000  1.2552000  3
    499    497    509    515     1  0.0000000  0.6508444  3
    499    497    509    510     1  0.0000000  0.6508444  3
    499    497    509    511     1  0.0000000  0.6508444  3
    500    503    512    513     1  0.0000000  0.6508444  3
    500    503    512    514     1  0.0000000  0.6508444  3
    501    500    503    512     1  0.0000000  0.6508444  3
    501    500    503    504     1  0.0000000  0.6508444  3
    501    500    503    505     1  0.0000000  0.6508444  3
    502    500    503    512     1  0.0000000  0.6508444  3
    502    500    503    504     1  0.0000000  0.6508444  3
    502    500    503    505     1  0.0000000  0.6508444  3
    504    503    512    521     1  0.0000000  1.0460000  1
    504    503    512    521     1  0.0000000  0.0000000  3
    504    503    512    513     1  0.0000000  0.6508444  3
    504    503    512    514     1  0.0000000  0.6508444  3
    505    503    512    521     1  0.0000000  1.0460000  1
    505    503    512    521     1  0.0000000  0.0000000  3
    505    503    512    513     1  0.0000000  0.6508444  3
    505    503    512    514     1  0.0000000  0.6508444  3
    507    506    518   1101     1  0.0000000  1.0460000  1
    507    506    518   1101     1  0.0000000  0.0000000  3
    507    506    518    519     1  0.0000000  0.6508444  3
    507    506    518    520     1  0.0000000  0.6508444  3
    508    506    518   1101     1  0.0000000  1.0460000  1
    508    506    518   1101     1  0.0000000  0.0000000  3
    508    506    518    519     1  0.0000000  0.6508444  3
    508    506    518    520     1  0.0000000  0.6508444  3
    510    509    515   1072     1  0.0000000  1.0460000  1
    510    509    515   1072     1  0.0000000  0.0000000  3
    510    509    515    516     1  0.0000000  0.6508444  3
    510    509    515    517     1  0.0000000  0.6508444  3
    511    509    515   1072     1  0.0000000  1.0460000  1
    511    509    515   1072     1  0.0000000  0.0000000  3
    511    509    515    516     1  0.0000000  0.6508444  3
    511    509    515    517     1  0.0000000  0.6508444  3
    515   1072   1063   1064     1  0.0000000  1.6038667  3
    515   1072   1063   1065     1  0.0000000  1.6038667  3
    516    515   1072   1063     1  0.0000000  1.6038667  3
    517    515   1072   1063     1  0.0000000  1.6038667  3
    518   1101   1092   1093     1  0.0000000  1.6038667  3
    518   1101   1092   1094     1  0.0000000  1.6038667  3
    519    518   1101   1092     1  0.0000000  1.6038667  3
    520    518   1101   1092     1  0.0000000  1.6038667  3
    522    523    535    536     1  0.0000000  0.6508444  3
    522    523    535    537     1  0.0000000  0.6508444  3
    522    526    538    539     1  0.0000000  0.6508444  3
    522    526    538    540     1  0.0000000  0.6508444  3
    522    529    532    533     1  0.0000000  0.6508444  3
    522    529    532    534     1  0.0000000  0.6508444  3
    523    522    526    527     1  0.0000000  1.2552000  3
    523    522    526    528     1  0.0000000  1.2552000  3
    523    522    529    530     1  0.0000000  1.2552000  3
    523    522    529    531     1  0.0000000  1.2552000  3
    523    535    547    548     1  0.0000000  0.6508444  3
    523    535    547    549     1  0.0000000  0.6508444  3
    524    523    522    526     1  0.0000000  1.2552000  3
    524    523    522    529     1  0.0000000  1.2552000  3
    524    523    535    547     1  0.0000000  0.6508444  3
    524    523    535    536     1  0.0000000  0.6508444  3
    524    523    535    537     1  0.0000000  0.6508444  3
    525    523    522    526     1  0.0000000  1.2552000  3
    525    523    522    529     1  0.0000000  1.2552000  3
    525    523    535    547     1  0.0000000  0.6508444  3
    525    523    535    536     1  0.0000000  0.6508444  3
    525    523    535    537     1  0.0000000  0.6508444  3
    526    522    529    530     1  0.0000000  1.2552000  3
    526    522    529    531     1  0.0000000  1.2552000  3
    526    538    544    545     1  0.0000000  0.6508444  3
    526    538    544    546     1  0.0000000  0.6508444  3
    527    526    522    529     1  0.0000000  1.2552000  3
    527    526    538    544     1  0.0000000  0.6508444  3
    527    526    538    539     1  0.0000000  0.6508444  3
    527    526    538    540     1  0.0000000  0.6508444  3
    528    526    522    529     1  0.0000000  1.2552000  3
    528    526    538    544     1  0.0000000  0.6508444  3
    528    526    538    539     1  0.0000000  0.6508444  3
    528    526    538    540     1  0.0000000  0.6508444  3
    529    532    541    542     1  0.0000000  0.6508444  3
    529    532    541    543     1  0.0000000  0.6508444  3
    530    529    532    541     1  0.0000000  0.6508444  3
    530    529    532    533     1  0.0000000  0.6508444  3
    530    529    532    534     1  0.0000000  0.6508444  3
    531    529    532    541     1  0.0000000  0.6508444  3
    531    529    532    533     1  0.0000000  0.6508444  3
    531    529    532    534     1  0.0000000  0.6508444  3
    533    532    541    550     1  0.0000000  1.0460000  1
    533    532    541    550     1  0.0000000  0.0000000  3
    533    532    541    542     1  0.0000000  0.6508444  3
    533    532    541    543     1  0.0000000  0.6508444  3
    534    532    541    550     1  0.0000000  1.0460000  1
    534    532    541    550     1  0.0000000  0.0000000  3
    534    532    541    542     1  0.0000000  0.6508444  3
    534    532    541    543     1  0.0000000  0.6508444  3
    536    535    547   1159     1  0.0000000  1.0460000  1
    536    535    547   1159     1  0.0000000  0.0000000  3
    536    535    547    548     1  0.0000000  0.6508444  3
    536    535    547    549     1  0.0000000  0.6508444  3
    537    535    547   1159     1  0.0000000  1.0460000  1
    537    535    547   1159     1  0.0000000  0.0000000  3
    537    535    547    548     1  0.0000000  0.6508444  3
    537    535    547    549     1  0.0000000  0.6508444  3
    539    538    544   1130     1  0.0000000  1.0460000  1
    539    538    544   1130     1  0.0000000  0.0000000  3
    539    538    544    545     1  0.0000000  0.6508444  3
    539    538    544    546     1  0.0000000  0.6508444  3
    540    538    544   1130     1  0.0000000  1.0460000  1
    540    538    544   1130     1  0.0000000  0.0000000  3
    540    538    544    545     1  0.0000000  0.6508444  3
    540    538    544    546     1  0.0000000  0.6508444  3
    544   1130   1121   1122     1  0.0000000  1.6038667  3
    544   1130   1121   1123     1  0.0000000  1.6038667  3
    545    544   1130   1121     1  0.0000000  1.6038667  3
    546    544   1130   1121     1  0.0000000  1.6038667  3
    547   1159   1150   1151     1  0.0000000  1.6038667  3
    547   1159   1150   1152     1  0.0000000  1.6038667  3
    548    547   1159   1150     1  0.0000000  1.6038667  3
    549    547   1159   1150     1  0.0000000  1.6038667  3
    551    552    564    565     1  0.0000000  0.6508444  3
    551    552    564    566     1  0.0000000  0.6508444  3
    551    555    567    568     1  0.0000000  0.6508444  3
    551    555    567    569     1  0.0000000  0.6508444  3
    551    558    561    562     1  0.0000000  0.6508444  3
    551    558    561    563     1  0.0000000  0.6508444  3
    552    551    555    556     1  0.0000000  1.2552000  3
    552    551    555    557     1  0.0000000  1.2552000  3
    552    551    558    559     1  0.0000000  1.2552000  3
    552    551    558    560     1  0.0000000  1.2552000  3
    552    564    576    577     1  0.0000000  0.6508444  3
    552    564    576    578     1  0.0000000  0.6508444  3
    553    552    551    555     1  0.0000000  1.2552000  3
    553    552    551    558     1  0.0000000  1.2552000  3
    553    552    564    576     1  0.0000000  0.6508444  3
    553    552    564    565     1  0.0000000  0.6508444  3
    553    552    564    566     1  0.0000000  0.6508444  3
    554    552    551    555     1  0.0000000  1.2552000  3
    554    552    551    558     1  0.0000000  1.2552000  3
    554    552    564    576     1  0.0000000  0.6508444  3
    554    552    564    565     1  0.0000000  0.6508444  3
    554    552    564    566     1  0.0000000  0.6508444  3
    555    551    558    559     1  0.0000000  1.2552000  3
    555    551    558    560     1  0.0000000  1.2552000  3
    555    567    573    574     1  0.0000000  0.6508444  3
    555    567    573    575     1  0.0000000  0.6508444  3
    556    555    551    558     1  0.0000000  1.2552000  3
    556    555    567    573     1  0.0000000  0.6508444  3
    556    555    567    568     1  0.0000000  0.6508444  3
    556    555    567    569     1  0.0000000  0.6508444  3
    557    555    551    558     1  0.0000000  1.2552000  3
    557    555    567    573     1  0.0000000  0.6508444  3
    557    555    567    568     1  0.0000000  0.6508444  3
    557    555    567    569     1  0.0000000  0.6508444  3
    558    561    570    571     1  0.0000000  0.6508444  3
    558    561    570    572     1  0.0000000  0.6508444  3
    559    558    561    570     1  0.0000000  0.6508444  3
    559    558    561    562     1  0.0000000  0.6508444  3
    559    558    561    563     1  0.0000000  0.6508444  3
    560    558    561    570     1  0.0000000  0.6508444  3
    560    558    561    562     1  0.0000000  0.6508444  3
    560    558    561    563     1  0.0000000  0.6508444  3
    562    561    570    579     1  0.0000000  1.0460000  1
    562    561    570    579     1  0.0000000  0.0000000  3
    562    561    570    571     1  0.0000000  0.6508444  3
    562    561    570    572     1  0.0000000  0.6508444  3
    563    561    570    579     1  0.0000000  1.0460000  1
    563    561    570    579     1  0.0000000  0.0000000  3
    563    561    570    571     1  0.0000000  0.6508444  3
    563    561    570    572     1  0.0000000  0.6508444  3
    565    564    576   1217     1  0.0000000  1.0460000  1
    565    564    576   1217     1  0.0000000  0.0000000  3
    565    564    576    577     1  0.0000000  0.6508444  3
    565    564    576    578     1  0.0000000  0.6508444  3
    566    564    576   1217     1  0.0000000  1.0460000  1
    566    564    576   1217     1  0.0000000  0.0000000  3
    566    564    576    577     1  0.0000000  0.6508444  3
    566    564    576    578     1  0.0000000  0.6508444  3
    568    567    573   1188     1  0.0000000  1.0460000  1
    568    567    573   1188     1  0.0000000  0.0000000  3
    568    567    573    574     1  0.0000000  0.6508444  3
    568    567    573    575     1  0.0000000  0.6508444  3
    569    567    573   1188     1  0.0000000  1.0460000  1
    569    567    573   1188     1  0.0000000  0.0000000  3
    569    567    573    574     1  0.0000000  0.6508444  3
    569    567    573    575     1  0.0000000  0.6508444  3
    573   1188   1179   1180     1  0.0000000  1.6038667  3
    573   1188   1179   1181     1  0.0000000  1.6038667  3
    574    573   1188   1179     1  0.0000000  1.6038667  3
    575    573   1188   1179     1  0.0000000  1.6038667  3
    576   1217   1208   1209     1  0.0000000  1.6038667  3
    576   1217   1208   1210     1  0.0000000  1.6038667  3
    577    576   1217   1208     1  0.0000000  1.6038667  3
    578    576   1217   1208     1  0.0000000  1.6038667  3
    580    581    593    594     1  0.0000000  0.6508444  3
    580    581    593    595     1  0.0000000  0.6508444  3
    580    584    596    597     1  0.0000000  0.6508444  3
    580    584    596    598     1  0.0000000  0.6508444  3
    580    587    590    591     1  0.0000000  0.6508444  3
    580    587    590    592     1  0.0000000  0.6508444  3
    581    580    584    585     1  0.0000000  1.2552000  3
    581    580    584    586     1  0.0000000  1.2552000  3
    581    580    587    588     1  0.0000000  1.2552000  3
    581    580    587    589     1  0.0000000  1.2552000  3
    581    593    605    606     1  0.0000000  0.6508444  3
    581    593    605    607     1  0.0000000  0.6508444  3
    582    581    580    584     1  0.0000000  1.2552000  3
    582    581    580    587     1  0.0000000  1.2552000  3
    582    581    593    605     1  0.0000000  0.6508444  3
    582    581    593    594     1  0.0000000  0.6508444  3
    582    581    593    595     1  0.0000000  0.6508444  3
    583    581    580    584     1  0.0000000  1.2552000  3
    583    581    580    587     1  0.0000000  1.2552000  3
    583    581    593    605     1  0.0000000  0.6508444  3
    583    581    593    594     1  0.0000000  0.6508444  3
    583    581    593    595     1  0.0000000  0.6508444  3
    584    580    587    588     1  0.0000000  1.2552000  3
    584    580    587    589     1  0.0000000  1.2552000  3
    584    596    602    603     1  0.0000000  0.6508444  3
    584    596    602    604     1  0.0000000  0.6508444  3
    585    584    580    587     1  0.0000000  1.2552000  3
    585    584    596    602     1  0.0000000  0.6508444  3
    585    584    596    597     1  0.0000000  0.6508444  3
    585    584    596    598     1  0.0000000  0.6508444  3
    586    584    580    587     1  0.0000000  1.2552000  3
    586    584    596    602     1  0.0000000  0.6508444  3
    586    584    596    597     1  0.0000000  0.6508444  3
    586    584    596    598     1  0.0000000  0.6508444  3
    587    590    599    600     1  0.0000000  0.6508444  3
    587    590    599    601     1  0.0000000  0.6508444  3
    588    587    590    599     1  0.0000000  0.6508444  3
    588    587    590    591     1  0.0000000  0.6508444  3
    588    587    590    592     1  0.0000000  0.6508444  3
    589    587    590    599     1  0.0000000  0.6508444  3
    589    587    590    591     1  0.0000000  0.6508444  3
    589    587    590    592     1  0.0000000  0.6508444  3
    591    590    599    608     1  0.0000000  1.0460000  1
    591    590    599    608     1  0.0000000  0.0000000  3
    591    590    599    600     1  0.0000000  0.6508444  3
    591    590    599    601     1  0.0000000  0.6508444  3
    592    590    599    608     1  0.0000000  1.0460000  1
    592    590    599    608     1  0.0000000  0.0000000  3
    592    590    599    600     1  0.0000000  0.6508444  3
    592    590    599    601     1  0.0000000  0.6508444  3
    594    593    605   1275     1  0.0000000  1.0460000  1
    594    593    605   1275     1  0.0000000  0.0000000  3
    594    593    605    606     1  0.0000000  0.6508444  3
    594    593    605    607     1  0.0000000  0.6508444  3
    595    593    605   1275     1  0.0000000  1.0460000  1
    595    593    605   1275     1  0.0000000  0.0000000  3
    595    593    605    606     1  0.0000000  0.6508444  3
    595    593    605    607     1  0.0000000  0.6508444  3
    597    596    602   1246     1  0.0000000  1.0460000  1
    597    596    602   1246     1  0.0000000  0.0000000  3
    597    596    602    603     1  0.0000000  0.6508444  3
    597    596    602    604     1  0.0000000  0.6508444  3
    598    596    602   1246     1  0.0000000  1.0460000  1
    598    596    602   1246     1  0.0000000  0.0000000  3
    598    596    602    603     1  0.0000000  0.6508444  3
    598    596    602    604     1  0.0000000  0.6508444  3
    602   1246   1237   1238     1  0.0000000  1.6038667  3
    602   1246   1237   1239     1  0.0000000  1.6038667  3
    603    602   1246   1237     1  0.0000000  1.6038667  3
    604    602   1246   1237     1  0.0000000  1.6038667  3
    605   1275   1266   1267     1  0.0000000  1.6038667  3
    605   1275   1266   1268     1  0.0000000  1.6038667  3
    606    605   1275   1266     1  0.0000000  1.6038667  3
    607    605   1275   1266     1  0.0000000  1.6038667  3
    609    610    622    623     1  0.0000000  0.6508444  3
    609    610    622    624     1  0.0000000  0.6508444  3
    609    613    625    626     1  0.0000000  0.6508444  3
    609    613    625    627     1  0.0000000  0.6508444  3
    609    616    619    620     1  0.0000000  0.6508444  3
    609    616    619    621     1  0.0000000  0.6508444  3
    610    609    613    614     1  0.0000000  1.2552000  3
    610    609    613    615     1  0.0000000  1.2552000  3
    610    609    616    617     1  0.0000000  1.2552000  3
    610    609    616    618     1  0.0000000  1.2552000  3
    610    622    634    635     1  0.0000000  0.6508444  3
    610    622    634    636     1  0.0000000  0.6508444  3
    611    610    609    613     1  0.0000000  1.2552000  3
    611    610    609    616     1  0.0000000  1.2552000  3
    611    610    622    634     1  0.0000000  0.6508444  3
    611    610    622    623     1  0.0000000  0.6508444  3
    611    610    622    624     1  0.0000000  0.6508444  3
    612    610    609    613     1  0.0000000  1.2552000  3
    612    610    609    616     1  0.0000000  1.2552000  3
    612    610    622    634     1  0.0000000  0.6508444  3
    612    610    622    623     1  0.0000000  0.6508444  3
    612    610    622    624     1  0.0000000  0.6508444  3
    613    609    616    617     1  0.0000000  1.2552000  3
    613    609    616    618     1  0.0000000  1.2552000  3
    613    625    631    632     1  0.0000000  0.6508444  3
    613    625    631    633     1  0.0000000  0.6508444  3
    614    613    609    616     1  0.0000000  1.2552000  3
    614    613    625    631     1  0.0000000  0.6508444  3
    614    613    625    626     1  0.0000000  0.6508444  3
    614    613    625    627     1  0.0000000  0.6508444  3
    615    613    609    616     1  0.0000000  1.2552000  3
    615    613    625    631     1  0.0000000  0.6508444  3
    615    613    625    626     1  0.0000000  0.6508444  3
    615    613    625    627     1  0.0000000  0.6508444  3
    616    619    628    629     1  0.0000000  0.6508444  3
    616    619    628    630     1  0.0000000  0.6508444  3
    617    616    619    628     1  0.0000000  0.6508444  3
    617    616    619    620     1  0.0000000  0.6508444  3
    617    616    619    621     1  0.0000000  0.6508444  3
    618    616    619    628     1  0.0000000  0.6508444  3
    618    616    619    620     1  0.0000000  0.6508444  3
    618    616    619    621     1  0.0000000  0.6508444  3
    620    619    628    637     1  0.0000000  1.0460000  1
    620    619    628    637     1  0.0000000  0.0000000  3
    620    619    628    629     1  0.0000000  0.6508444  3
    620    619    628    630     1  0.0000000  0.6508444  3
    621    619    628    637     1  0.0000000  1.0460000  1
    621    619    628    637     1  0.0000000  0.0000000  3
    621    619    628    629     1  0.0000000  0.6508444  3
    621    619    628    630     1  0.0000000  0.6508444  3
    623    622    634   1333     1  0.0000000  1.0460000  1
    623    622    634   1333     1  0.0000000  0.0000000  3
    623    622    634    635     1  0.0000000  0.6508444  3
    623    622    634    636     1  0.0000000  0.6508444  3
    624    622    634   1333     1  0.0000000  1.0460000  1
    624    622    634   1333     1  0.0000000  0.0000000  3
    624    622    634    635     1  0.0000000  0.6508444  3
    624    622    634    636     1  0.0000000  0.6508444  3
    626    625    631   1304     1  0.0000000  1.0460000  1
    626    625    631   1304     1  0.0000000  0.0000000  3
    626    625    631    632     1  0.0000000  0.6508444  3
    626    625    631    633     1  0.0000000  0.6508444  3
    627    625    631   1304     1  0.0000000  1.0460000  1
    627    625    631   1304     1  0.0000000  0.0000000  3
    627    625    631    632     1  0.0000000  0.6508444  3
    627    625    631    633     1  0.0000000  0.6508444  3
    631   1304   1295   1296     1  0.0000000  1.6038667  3
    631   1304   1295   1297     1  0.0000000  1.6038667  3
    632    631   1304   1295     1  0.0000000  1.6038667  3
    633    631   1304   1295     1  0.0000000  1.6038667  3
    634   1333   1324   1325     1  0.0000000  1.6038667  3
    634   1333   1324   1326     1  0.0000000  1.6038667  3
    635    634   1333   1324     1  0.0000000  1.6038667  3
    636    634   1333   1324     1  0.0000000  1.6038667  3
    638    639    651    652     1  0.0000000  0.6508444  3
    638    639    651    653     1  0.0000000  0.6508444  3
    638    642    654    655     1  0.0000000  0.6508444  3
    638    642    654    656     1  0.0000000  0.6508444  3
    638    645    648    649     1  0.0000000  0.6508444  3
    638    645    648    650     1  0.0000000  0.6508444  3
    639    638    642    643     1  0.0000000  1.2552000  3
    639    638    642    644     1  0.0000000  1.2552000  3
    639    638    645    646     1  0.0000000  1.2552000  3
    639    638    645    647     1  0.0000000  1.2552000  3
    639    651    663    664     1  0.0000000  0.6508444  3
    639    651    663    665     1  0.0000000  0.6508444  3
    640    639    638    642     1  0.0000000  1.2552000  3
    640    639    638    645     1  0.0000000  1.2552000  3
    640    639    651    663     1  0.0000000  0.6508444  3
    640    639    651    652     1  0.0000000  0.6508444  3
    640    639    651    653     1  0.0000000  0.6508444  3
    641    639    638    642     1  0.0000000  1.2552000  3
    641    639    638    645     1  0.0000000  1.2552000  3
    641    639    651    663     1  0.0000000  0.6508444  3
    641    639    651    652     1  0.0000000  0.6508444  3
    641    639    651    653     1  0.0000000  0.6508444  3
    642    638    645    646     1  0.0000000  1.2552000  3
    642    638    645    647     1  0.0000000  1.2552000  3
    642    654    660    661     1  0.0000000  0.6508444  3
    642    654    660    662     1  0.0000000  0.6508444  3
    643    642    638    645     1  0.0000000  1.2552000  3
    643    642    654    660     1  0.0000000  0.6508444  3
    643    642    654    655     1  0.0000000  0.6508444  3
    643    642    654    656     1  0.0000000  0.6508444  3
    644    642    638    645     1  0.0000000  1.2552000  3
    644    642    654    660     1  0.0000000  0.6508444  3
    644    642    654    655     1  0.0000000  0.6508444  3
    644    642    654    656     1  0.0000000  0.6508444  3
    645    648    657    658     1  0.0000000  0.6508444  3
    645    648    657    659     1  0.0000000  0.6508444  3
    646    645    648    657     1  0.0000000  0.6508444  3
    646    645    648    649     1  0.0000000  0.6508444  3
    646    645    648    650     1  0.0000000  0.6508444  3
    647    645    648    657     1  0.0000000  0.6508444  3
    647    645    648    649     1  0.0000000  0.6508444  3
    647    645    648    650     1  0.0000000  0.6508444  3
    649    648    657    666     1  0.0000000  1.0460000  1
    649    648    657    666     1  0.0000000  0.0000000  3
    649    648    657    658     1  0.0000000  0.6508444  3
    649    648    657    659     1  0.0000000  0.6508444  3
    650    648    657    666     1  0.0000000  1.0460000  1
    650    648    657    666     1  0.0000000  0.0000000  3
    650    648    657    658     1  0.0000000  0.6508444  3
    650    648    657    659     1  0.0000000  0.6508444  3
    652    651    663   1391     1  0.0000000  1.0460000  1
    652    651    663   1391     1  0.0000000  0.0000000  3
    652    651    663    664     1  0.0000000  0.6508444  3
    652    651    663    665     1  0.0000000  0.6508444  3
    653    651    663   1391     1  0.0000000  1.0460000  1
    653    651    663   1391     1  0.0000000  0.0000000  3
    653    651    663    664     1  0.0000000  0.6508444  3
    653    651    663    665     1  0.0000000  0.6508444  3
    655    654    660   1362     1  0.0000000  1.0460000  1
    655    654    660   1362     1  0.0000000  0.0000000  3
    655    654    660    661     1  0.0000000  0.6508444  3
    655    654    660    662     1  0.0000000  0.6508444  3
    656    654    660   1362     1  0.0000000  1.0460000  1
    656    654    660   1362     1  0.0000000  0.0000000  3
    656    654    660    661     1  0.0000000  0.6508444  3
    656    654    660    662     1  0.0000000  0.6508444  3
    660   1362   1353   1354     1  0.0000000  1.6038667  3
    660   1362   1353   1355     1  0.0000000  1.6038667  3
    661    660   1362   1353     1  0.0000000  1.6038667  3
    662    660   1362   1353     1  0.0000000  1.6038667  3
    663   1391   1382   1383     1  0.0000000  1.6038667  3
    663   1391   1382   1384     1  0.0000000  1.6038667  3
    664    663   1391   1382     1  0.0000000  1.6038667  3
    665    663   1391   1382     1  0.0000000  1.6038667  3
    667    668    680    681     1  0.0000000  0.6508444  3
    667    668    680    682     1  0.0000000  0.6508444  3
    667    671    683    684     1  0.0000000  0.6508444  3
    667    671    683    685     1  0.0000000  0.6508444  3
    667    674    677    678     1  0.0000000  0.6508444  3
    667    674    677    679     1  0.0000000  0.6508444  3
    668    667    671    672     1  0.0000000  1.2552000  3
    668    667    671    673     1  0.0000000  1.2552000  3
    668    667    674    675     1  0.0000000  1.2552000  3
    668    667    674    676     1  0.0000000  1.2552000  3
    668    680    692    693     1  0.0000000  0.6508444  3
    668    680    692    694     1  0.0000000  0.6508444  3
    669    668    667    671     1  0.0000000  1.2552000  3
    669    668    667    674     1  0.0000000  1.2552000  3
    669    668    680    692     1  0.0000000  0.6508444  3
    669    668    680    681     1  0.0000000  0.6508444  3
    669    668    680    682     1  0.0000000  0.6508444  3
    670    668    667    671     1  0.0000000  1.2552000  3
    670    668    667    674     1  0.0000000  1.2552000  3
    670    668    680    692     1  0.0000000  0.6508444  3
    670    668    680    681     1  0.0000000  0.6508444  3
    670    668    680    682     1  0.0000000  0.6508444  3
    671    667    674    675     1  0.0000000  1.2552000  3
    671    667    674    676     1  0.0000000  1.2552000  3
    671    683    689    690     1  0.0000000  0.6508444  3
    671    683    689    691     1  0.0000000  0.6508444  3
    672    671    667    674     1  0.0000000  1.2552000  3
    672    671    683    689     1  0.0000000  0.6508444  3
    672    671    683    684     1  0.0000000  0.6508444  3
    672    671    683    685     1  0.0000000  0.6508444  3
    673    671    667    674     1  0.0000000  1.2552000  3
    673    671    683    689     1  0.0000000  0.6508444  3
    673    671    683    684     1  0.0000000  0.6508444  3
    673    671    683    685     1  0.0000000  0.6508444  3
    674    677    686    687     1  0.0000000  0.6508444  3
    674    677    686    688     1  0.0000000  0.6508444  3
    675    674    677    686     1  0.0000000  0.6508444  3
    675    674    677    678     1  0.0000000  0.6508444  3
    675    674    677    679     1  0.0000000  0.6508444  3
    676    674    677    686     1  0.0000000  0.6508444  3
    676    674    677    678     1  0.0000000  0.6508444  3
    676    674    677    679     1  0.0000000  0.6508444  3
    678    677    686    695     1  0.0000000  1.0460000  1
    678    677    686    695     1  0.0000000  0.0000000  3
    678    677    686    687     1  0.0000000  0.6508444  3
    678    677    686    688     1  0.0000000  0.6508444  3
    679    677    686    695     1  0.0000000  1.0460000  1
    679    677    686    695     1  0.0000000  0.0000000  3
    679    677    686    687     1  0.0000000  0.6508444  3
    679    677    686    688     1  0.0000000  0.6508444  3
    681    680    692   1449     1  0.0000000  1.0460000  1
    681    680    692   1449     1  0.0000000  0.0000000  3
    681    680    692    693     1  0.0000000  0.6508444  3
    681    680    692    694     1  0.0000000  0.6508444  3
    682    680    692   1449     1  0.0000000  1.0460000  1
    682    680    692   1449     1  0.0000000  0.0000000  3
    682    680    692    693     1  0.0000000  0.6508444  3
    682    680    692    694     1  0.0000000  0.6508444  3
    684    683    689   1420     1  0.0000000  1.0460000  1
    684    683    689   1420     1  0.0000000  0.0000000  3
    684    683    689    690     1  0.0000000  0.6508444  3
    684    683    689    691     1  0.0000000  0.6508444  3
    685    683    689   1420     1  0.0000000  1.0460000  1
    685    683    689   1420     1  0.0000000  0.0000000  3
    685    683    689    690     1  0.0000000  0.6508444  3
    685    683    689    691     1  0.0000000  0.6508444  3
    689   1420   1411   1412     1  0.0000000  1.6038667  3
    689   1420   1411   1413     1  0.0000000  1.6038667  3
    690    689   1420   1411     1  0.0000000  1.6038667  3
    691    689   1420   1411     1  0.0000000  1.6038667  3
    692   1449   1440   1441     1  0.0000000  1.6038667  3
    692   1449   1440   1442     1  0.0000000  1.6038667  3
    693    692   1449   1440     1  0.0000000  1.6038667  3
    694    692   1449   1440     1  0.0000000  1.6038667  3
    696    697    709    710     1  0.0000000  0.6508444  3
    696    697    709    711     1  0.0000000  0.6508444  3
    696    700    712    713     1  0.0000000  0.6508444  3
    696    700    712    714     1  0.0000000  0.6508444  3
    696    703    706    707     1  0.0000000  0.6508444  3
    696    703    706    708     1  0.0000000  0.6508444  3
    697    696    700    701     1  0.0000000  1.2552000  3
    697    696    700    702     1  0.0000000  1.2552000  3
    697    696    703    704     1  0.0000000  1.2552000  3
    697    696    703    705     1  0.0000000  1.2552000  3
    697    709    721    722     1  0.0000000  0.6508444  3
    697    709    721    723     1  0.0000000  0.6508444  3
    698    697    696    700     1  0.0000000  1.2552000  3
    698    697    696    703     1  0.0000000  1.2552000  3
    698    697    709    721     1  0.0000000  0.6508444  3
    698    697    709    710     1  0.0000000  0.6508444  3
    698    697    709    711     1  0.0000000  0.6508444  3
    699    697    696    700     1  0.0000000  1.2552000  3
    699    697    696    703     1  0.0000000  1.2552000  3
    699    697    709    721     1  0.0000000  0.6508444  3
    699    697    709    710     1  0.0000000  0.6508444  3
    699    697    709    711     1  0.0000000  0.6508444  3
    700    696    703    704     1  0.0000000  1.2552000  3
    700    696    703    705     1  0.0000000  1.2552000  3
    700    712    718    719     1  0.0000000  0.6508444  3
    700    712    718    720     1  0.0000000  0.6508444  3
    701    700    696    703     1  0.0000000  1.2552000  3
    701    700    712    718     1  0.0000000  0.6508444  3
    701    700    712    713     1  0.0000000  0.6508444  3
    701    700    712    714     1  0.0000000  0.6508444  3
    702    700    696    703     1  0.0000000  1.2552000  3
    702    700    712    718     1  0.0000000  0.6508444  3
    702    700    712    713     1  0.0000000  0.6508444  3
    702    700    712    714     1  0.0000000  0.6508444  3
    703    706    715    716     1  0.0000000  0.6508444  3
    703    706    715    717     1  0.0000000  0.6508444  3
    704    703    706    715     1  0.0000000  0.6508444  3
    704    703    706    707     1  0.0000000  0.6508444  3
    704    703    706    708     1  0.0000000  0.6508444  3
    705    703    706    715     1  0.0000000  0.6508444  3
    705    703    706    707     1  0.0000000  0.6508444  3
    705    703    706    708     1  0.0000000  0.6508444  3
    707    706    715    724     1  0.0000000  1.0460000  1
    707    706    715    724     1  0.0000000  0.0000000  3
    707    706    715    716     1  0.0000000  0.6508444  3
    707    706    715    717     1  0.0000000  0.6508444  3
    708    706    715    724     1  0.0000000  1.0460000  1
    708    706    715    724     1  0.0000000  0.0000000  3
    708    706    715    716     1  0.0000000  0.6508444  3
    708    706    715    717     1  0.0000000  0.6508444  3
    710    709    721   1507     1  0.0000000  1.0460000  1
    710    709    721   1507     1  0.0000000  0.0000000  3
    710    709    721    722     1  0.0000000  0.6508444  3
    710    709    721    723     1  0.0000000  0.6508444  3
    711    709    721   1507     1  0.0000000  1.0460000  1
    711    709    721   1507     1  0.0000000  0.0000000  3
    711    709    721    722     1  0.0000000  0.6508444  3
    711    709    721    723     1  0.0000000  0.6508444  3
    713    712    718   1478     1  0.0000000  1.0460000  1
    713    712    718   1478     1  0.0000000  0.0000000  3
    713    712    718    719     1  0.0000000  0.6508444  3
    713    712    718    720     1  0.0000000  0.6508444  3
    714    712    718   1478     1  0.0000000  1.0460000  1
    714    712    718   1478     1  0.0000000  0.0000000  3
    714    712    718    719     1  0.0000000  0.6508444  3
    714    712    718    720     1  0.0000000  0.6508444  3
    718   1478   1469   1470     1  0.0000000  1.6038667  3
    718   1478   1469   1471     1  0.0000000  1.6038667  3
    719    718   1478   1469     1  0.0000000  1.6038667  3
    720    718   1478   1469     1  0.0000000  1.6038667  3
    721   1507   1498   1499     1  0.0000000  1.6038667  3
    721   1507   1498   1500     1  0.0000000  1.6038667  3
    722    721   1507   1498     1  0.0000000  1.6038667  3
    723    721   1507   1498     1  0.0000000  1.6038667  3
    725    726    738    739     1  0.0000000  0.6508444  3
    725    726    738    740     1  0.0000000  0.6508444  3
    725    729    741    742     1  0.0000000  0.6508444  3
    725    729    741    743     1  0.0000000  0.6508444  3
    725    732    735    736     1  0.0000000  0.6508444  3
    725    732    735    737     1  0.0000000  0.6508444  3
    726    725    729    730     1  0.0000000  1.2552000  3
    726    725    729    731     1  0.0000000  1.2552000  3
    726    725    732    733     1  0.0000000  1.2552000  3
    726    725    732    734     1  0.0000000  1.2552000  3
    726    738    750    751     1  0.0000000  0.6508444  3
    726    738    750    752     1  0.0000000  0.6508444  3
    727    726    725    729     1  0.0000000  1.2552000  3
    727    726    725    732     1  0.0000000  1.2552000  3
    727    726    738    750     1  0.0000000  0.6508444  3
    727    726    738    739     1  0.0000000  0.6508444  3
    727    726    738    740     1  0.0000000  0.6508444  3
    728    726    725    729     1  0.0000000  1.2552000  3
    728    726    725    732     1  0.0000000  1.2552000  3
    728    726    738    750     1  0.0000000  0.6508444  3
    728    726    738    739     1  0.0000000  0.6508444  3
    728    726    738    740     1  0.0000000  0.6508444  3
    729    725    732    733     1  0.0000000  1.2552000  3
    729    725    732    734     1  0.0000000  1.2552000  3
    729    741    747    748     1  0.0000000  0.6508444  3
    729    741    747    749     1  0.0000000  0.6508444  3
    730    729    725    732     1  0.0000000  1.2552000  3
    730    729    741    747     1  0.0000000  0.6508444  3
    730    729    741    742     1  0.0000000  0.6508444  3
    730    729    741    743     1  0.0000000  0.6508444  3
    731    729    725    732     1  0.0000000  1.2552000  3
    731    729    741    747     1  0.0000000  0.6508444  3
    731    729    741    742     1  0.0000000  0.6508444  3
    731    729    741    743     1  0.0000000  0.6508444  3
    732    735    744    745     1  0.0000000  0.6508444  3
    732    735    744    746     1  0.0000000  0.6508444  3
    733    732    735    744     1  0.0000000  0.6508444  3
    733    732    735    736     1  0.0000000  0.6508444  3
    733    732    735    737     1  0.0000000  0.6508444  3
    734    732    735    744     1  0.0000000  0.6508444  3
    734    732    735    736     1  0.0000000  0.6508444  3
    734    732    735    737     1  0.0000000  0.6508444  3
    736    735    744    753     1  0.0000000  1.0460000  1
    736    735    744    753     1  0.0000000  0.0000000  3
    736    735    744    745     1  0.0000000  0.6508444  3
    736    735    744    746     1  0.0000000  0.6508444  3
    737    735    744    753     1  0.0000000  1.0460000  1
    737    735    744    753     1  0.0000000  0.0000000  3
    737    735    744    745     1  0.0000000  0.6508444  3
    737    735    744    746     1  0.0000000  0.6508444  3
    739    738    750   1565     1  0.0000000  1.0460000  1
    739    738    750   1565     1  0.0000000  0.0000000  3
    739    738    750    751     1  0.0000000  0.6508444  3
    739    738    750    752     1  0.0000000  0.6508444  3
    740    738    750   1565     1  0.0000000  1.0460000  1
    740    738    750   1565     1  0.0000000  0.0000000  3
    740    738    750    751     1  0.0000000  0.6508444  3
    740    738    750    752     1  0.0000000  0.6508444  3
    742    741    747   1536     1  0.0000000  1.0460000  1
    742    741    747   1536     1  0.0000000  0.0000000  3
    742    741    747    748     1  0.0000000  0.6508444  3
    742    741    747    749     1  0.0000000  0.6508444  3
    743    741    747   1536     1  0.0000000  1.0460000  1
    743    741    747   1536     1  0.0000000  0.0000000  3
    743    741    747    748     1  0.0000000  0.6508444  3
    743    741    747    749     1  0.0000000  0.6508444  3
    747   1536   1527   1528     1  0.0000000  1.6038667  3
    747   1536   1527   1529     1  0.0000000  1.6038667  3
    748    747   1536   1527     1  0.0000000  1.6038667  3
    749    747   1536   1527     1  0.0000000  1.6038667  3
    750   1565   1556   1557     1  0.0000000  1.6038667  3
    750   1565   1556   1558     1  0.0000000  1.6038667  3
    751    750   1565   1556     1  0.0000000  1.6038667  3
    752    750   1565   1556     1  0.0000000  1.6038667  3
    754    755    767    768     1  0.0000000  0.6508444  3
    754    755    767    769     1  0.0000000  0.6508444  3
    754    758    770    771     1  0.0000000  0.6508444  3
    754    758    770    772     1  0.0000000  0.6508444  3
    754    761    764    765     1  0.0000000  0.6508444  3
    754    761    764    766     1  0.0000000  0.6508444  3
    755    754    758    759     1  0.0000000  1.2552000  3
    755    754    758    760     1  0.0000000  1.2552000  3
    755    754    761    762     1  0.0000000  1.2552000  3
    755    754    761    763     1  0.0000000  1.2552000  3
    755    767    779    780     1  0.0000000  0.6508444  3
    755    767    779    781     1  0.0000000  0.6508444  3
    756    755    754    758     1  0.0000000  1.2552000  3
    756    755    754    761     1  0.0000000  1.2552000  3
    756    755    767    779     1  0.0000000  0.6508444  3
    756    755    767    768     1  0.0000000  0.6508444  3
    756    755    767    769     1  0.0000000  0.6508444  3
    757    755    754    758     1  0.0000000  1.2552000  3
    757    755    754    761     1  0.0000000  1.2552000  3
    757    755    767    779     1  0.0000000  0.6508444  3
    757    755    767    768     1  0.0000000  0.6508444  3
    757    755    767    769     1  0.0000000  0.6508444  3
    758    754    761    762     1  0.0000000  1.2552000  3
    758    754    761    763     1  0.0000000  1.2552000  3
    758    770    776    777     1  0.0000000  0.6508444  3
    758    770    776    778     1  0.0000000  0.6508444  3
    759    758    754    761     1  0.0000000  1.2552000  3
    759    758    770    776     1  0.0000000  0.6508444  3
    759    758    770    771     1  0.0000000  0.6508444  3
    759    758    770    772     1  0.0000000  0.6508444  3
    760    758    754    761     1  0.0000000  1.2552000  3
    760    758    770    776     1  0.0000000  0.6508444  3
    760    758    770    771     1  0.0000000  0.6508444  3
    760    758    770    772     1  0.0000000  0.6508444  3
    761    764    773    774     1  0.0000000  0.6508444  3
    761    764    773    775     1  0.0000000  0.6508444  3
    762    761    764    773     1  0.0000000  0.6508444  3
    762    761    764    765     1  0.0000000  0.6508444  3
    762    761    764    766     1  0.0000000  0.6508444  3
    763    761    764    773     1  0.0000000  0.6508444  3
    763    761    764    765     1  0.0000000  0.6508444  3
    763    761    764    766     1  0.0000000  0.6508444  3
    765    764    773    782     1  0.0000000  1.0460000  1
    765    764    773    782     1  0.0000000  0.0000000  3
    765    764    773    774     1  0.0000000  0.6508444  3
    765    764    773    775     1  0.0000000  0.6508444  3
    766    764    773    782     1  0.0000000  1.0460000  1
    766    764    773    782     1  0.0000000  0.0000000  3
    766    764    773    774     1  0.0000000  0.6508444  3
    766    764    773    775     1  0.0000000  0.6508444  3
    768    767    779   1623     1  0.0000000  1.0460000  1
    768    767    779   1623     1  0.0000000  0.0000000  3
    768    767    779    780     1  0.0000000  0.6508444  3
    768    767    779    781     1  0.0000000  0.6508444  3
    769    767    779   1623     1  0.0000000  1.0460000  1
    769    767    779   1623     1  0.0000000  0.0000000  3
    769    767    779    780     1  0.0000000  0.6508444  3
    769    767    779    781     1  0.0000000  0.6508444  3
    771    770    776   1594     1  0.0000000  1.0460000  1
    771    770    776   1594     1  0.0000000  0.0000000  3
    771    770    776    777     1  0.0000000  0.6508444  3
    771    770    776    778     1  0.0000000  0.6508444  3
    772    770    776   1594     1  0.0000000  1.0460000  1
    772    770    776   1594     1  0.0000000  0.0000000  3
    772    770    776    777     1  0.0000000  0.6508444  3
    772    770    776    778     1  0.0000000  0.6508444  3
    776   1594   1585   1586     1  0.0000000  1.6038667  3
    776   1594   1585   1587     1  0.0000000  1.6038667  3
    777    776   1594   1585     1  0.0000000  1.6038667  3
    778    776   1594   1585     1  0.0000000  1.6038667  3
    779   1623   1614   1615     1  0.0000000  1.6038667  3
    779   1623   1614   1616     1  0.0000000  1.6038667  3
    780    779   1623   1614     1  0.0000000  1.6038667  3
    781    779   1623   1614     1  0.0000000  1.6038667  3
    783    784    796    797     1  0.0000000  0.6508444  3
    783    784    796    798     1  0.0000000  0.6508444  3
    783    787    799    800     1  0.0000000  0.6508444  3
    783    787    799    801     1  0.0000000  0.6508444  3
    783    790    793    794     1  0.0000000  0.6508444  3
    783    790    793    795     1  0.0000000  0.6508444  3
    784    783    787    788     1  0.0000000  1.2552000  3
    784    783    787    789     1  0.0000000  1.2552000  3
    784    783    790    791     1  0.0000000  1.2552000  3
    784    783    790    792     1  0.0000000  1.2552000  3
    784    796    808    809     1  0.0000000  0.6508444  3
    784    796    808    810     1  0.0000000  0.6508444  3
    785    784    783    787     1  0.0000000  1.2552000  3
    785    784    783    790     1  0.0000000  1.2552000  3
    785    784    796    808     1  0.0000000  0.6508444  3
    785    784    796    797     1  0.0000000  0.6508444  3
    785    784    796    798     1  0.0000000  0.6508444  3
    786    784    783    787     1  0.0000000  1.2552000  3
    786    784    783    790     1  0.0000000  1.2552000  3
    786    784    796    808     1  0.0000000  0.6508444  3
    786    784    796    797     1  0.0000000  0.6508444  3
    786    784    796    798     1  0.0000000  0.6508444  3
    787    783    790    791     1  0.0000000  1.2552000  3
    787    783    790    792     1  0.0000000  1.2552000  3
    787    799    805    806     1  0.0000000  0.6508444  3
    787    799    805    807     1  0.0000000  0.6508444  3
    788    787    783    790     1  0.0000000  1.2552000  3
    788    787    799    805     1  0.0000000  0.6508444  3
    788    787    799    800     1  0.0000000  0.6508444  3
    788    787    799    801     1  0.0000000  0.6508444  3
    789    787    783    790     1  0.0000000  1.2552000  3
    789    787    799    805     1  0.0000000  0.6508444  3
    789    787    799    800     1  0.0000000  0.6508444  3
    789    787    799    801     1  0.0000000  0.6508444  3
    790    793    802    803     1  0.0000000  0.6508444  3
    790    793    802    804     1  0.0000000  0.6508444  3
    791    790    793    802     1  0.0000000  0.6508444  3
    791    790    793    794     1  0.0000000  0.6508444  3
    791    790    793    795     1  0.0000000  0.6508444  3
    792    790    793    802     1  0.0000000  0.6508444  3
    792    790    793    794     1  0.0000000  0.6508444  3
    792    790    793    795     1  0.0000000  0.6508444  3
    794    793    802    811     1  0.0000000  1.0460000  1
    794    793    802    811     1  0.0000000  0.0000000  3
    794    793    802    803     1  0.0000000  0.6508444  3
    794    793    802    804     1  0.0000000  0.6508444  3
    795    793    802    811     1  0.0000000  1.0460000  1
    795    793    802    811     1  0.0000000  0.0000000  3
    795    793    802    803     1  0.0000000  0.6508444  3
    795    793    802    804     1  0.0000000  0.6508444  3
    797    796    808   1681     1  0.0000000  1.0460000  1
    797    796    808   1681     1  0.0000000  0.0000000  3
    797    796    808    809     1  0.0000000  0.6508444  3
    797    796    808    810     1  0.0000000  0.6508444  3
    798    796    808   1681     1  0.0000000  1.0460000  1
    798    796    808   1681     1  0.0000000  0.0000000  3
    798    796    808    809     1  0.0000000  0.6508444  3
    798    796    808    810     1  0.0000000  0.6508444  3
    800    799    805   1652     1  0.0000000  1.0460000  1
    800    799    805   1652     1  0.0000000  0.0000000  3
    800    799    805    806     1  0.0000000  0.6508444  3
    800    799    805    807     1  0.0000000  0.6508444  3
    801    799    805   1652     1  0.0000000  1.0460000  1
    801    799    805   1652     1  0.0000000  0.0000000  3
    801    799    805    806     1  0.0000000  0.6508444  3
    801    799    805    807     1  0.0000000  0.6508444  3
    805   1652   1643   1644     1  0.0000000  1.6038667  3
    805   1652   1643   1645     1  0.0000000  1.6038667  3
    806    805   1652   1643     1  0.0000000  1.6038667  3
    807    805   1652   1643     1  0.0000000  1.6038667  3
    808   1681   1672   1673     1  0.0000000  1.6038667  3
    808   1681   1672   1674     1  0.0000000  1.6038667  3
    809    808   1681   1672     1  0.0000000  1.6038667  3
    810    808   1681   1672     1  0.0000000  1.6038667  3
    812    813    825    826     1  0.0000000  0.6508444  3
    812    813    825    827     1  0.0000000  0.6508444  3
    812    816    828    829     1  0.0000000  0.6508444  3
    812    816    828    830     1  0.0000000  0.6508444  3
    812    819    822    823     1  0.0000000  0.6508444  3
    812    819    822    824     1  0.0000000  0.6508444  3
    813    812    816    817     1  0.0000000  1.2552000  3
    813    812    816    818     1  0.0000000  1.2552000  3
    813    812    819    820     1  0.0000000  1.2552000  3
    813    812    819    821     1  0.0000000  1.2552000  3
    813    825    837    838     1  0.0000000  0.6508444  3
    813    825    837    839     1  0.0000000  0.6508444  3
    814    813    812    816     1  0.0000000  1.2552000  3
    814    813    812    819     1  0.0000000  1.2552000  3
    814    813    825    837     1  0.0000000  0.6508444  3
    814    813    825    826     1  0.0000000  0.6508444  3
    814    813    825    827     1  0.0000000  0.6508444  3
    815    813    812    816     1  0.0000000  1.2552000  3
    815    813    812    819     1  0.0000000  1.2552000  3
    815    813    825    837     1  0.0000000  0.6508444  3
    815    813    825    826     1  0.0000000  0.6508444  3
    815    813    825    827     1  0.0000000  0.6508444  3
    816    812    819    820     1  0.0000000  1.2552000  3
    816    812    819    821     1  0.0000000  1.2552000  3
    816    828    834    835     1  0.0000000  0.6508444  3
    816    828    834    836     1  0.0000000  0.6508444  3
    817    816    812    819     1  0.0000000  1.2552000  3
    817    816    828    834     1  0.0000000  0.6508444  3
    817    816    828    829     1  0.0000000  0.6508444  3
    817    816    828    830     1  0.0000000  0.6508444  3
    818    816    812    819     1  0.0000000  1.2552000  3
    818    816    828    834     1  0.0000000  0.6508444  3
    818    816    828    829     1  0.0000000  0.6508444  3
    818    816    828    830     1  0.0000000  0.6508444  3
    819    822    831    832     1  0.0000000  0.6508444  3
    819    822    831    833     1  0.0000000  0.6508444  3
    820    819    822    831     1  0.0000000  0.6508444  3
    820    819    822    823     1  0.0000000  0.6508444  3
    820    819    822    824     1  0.0000000  0.6508444  3
    821    819    822    831     1  0.0000000  0.6508444  3
    821    819    822    823     1  0.0000000  0.6508444  3
    821    819    822    824     1  0.0000000  0.6508444  3
    823    822    831    840     1  0.0000000  1.0460000  1
    823    822    831    840     1  0.0000000  0.0000000  3
    823    822    831    832     1  0.0000000  0.6508444  3
    823    822    831    833     1  0.0000000  0.6508444  3
    824    822    831    840     1  0.0000000  1.0460000  1
    824    822    831    840     1  0.0000000  0.0000000  3
    824    822    831    832     1  0.0000000  0.6508444  3
    824    822    831    833     1  0.0000000  0.6508444  3
    826    825    837   1739     1  0.0000000  1.0460000  1
    826    825    837   1739     1  0.0000000  0.0000000  3
    826    825    837    838     1  0.0000000  0.6508444  3
    826    825    837    839     1  0.0000000  0.6508444  3
    827    825    837   1739     1  0.0000000  1.0460000  1
    827    825    837   1739     1  0.0000000  0.0000000  3
    827    825    837    838     1  0.0000000  0.6508444  3
    827    825    837    839     1  0.0000000  0.6508444  3
    829    828    834   1710     1  0.0000000  1.0460000  1
    829    828    834   1710     1  0.0000000  0.0000000  3
    829    828    834    835     1  0.0000000  0.6508444  3
    829    828    834    836     1  0.0000000  0.6508444  3
    830    828    834   1710     1  0.0000000  1.0460000  1
    830    828    834   1710     1  0.0000000  0.0000000  3
    830    828    834    835     1  0.0000000  0.6508444  3
    830    828    834    836     1  0.0000000  0.6508444  3
    834   1710   1701   1702     1  0.0000000  1.6038667  3
    834   1710   1701   1703     1  0.0000000  1.6038667  3
    835    834   1710   1701     1  0.0000000  1.6038667  3
    836    834   1710   1701     1  0.0000000  1.6038667  3
    837   1739   1730   1731     1  0.0000000  1.6038667  3
    837   1739   1730   1732     1  0.0000000  1.6038667  3
    838    837   1739   1730     1  0.0000000  1.6038667  3
    839    837   1739   1730     1  0.0000000  1.6038667  3
    841    842    854    855     1  0.0000000  0.6508444  3
    841    842    854    856     1  0.0000000  0.6508444  3
    841    845    857    858     1  0.0000000  0.6508444  3
    841    845    857    859     1  0.0000000  0.6508444  3
    841    848    851    852     1  0.0000000  0.6508444  3
    841    848    851    853     1  0.0000000  0.6508444  3
    842    841    845    846     1  0.0000000  1.2552000  3
    842    841    845    847     1  0.0000000  1.2552000  3
    842    841    848    849     1  0.0000000  1.2552000  3
    842    841    848    850     1  0.0000000  1.2552000  3
    842    854    866    867     1  0.0000000  0.6508444  3
    842    854    866    868     1  0.0000000  0.6508444  3
    843    842    841    845     1  0.0000000  1.2552000  3
    843    842    841    848     1  0.0000000  1.2552000  3
    843    842    854    866     1  0.0000000  0.6508444  3
    843    842    854    855     1  0.0000000  0.6508444  3
    843    842    854    856     1  0.0000000  0.6508444  3
    844    842    841    845     1  0.0000000  1.2552000  3
    844    842    841    848     1  0.0000000  1.2552000  3
    844    842    854    866     1  0.0000000  0.6508444  3
    844    842    854    855     1  0.0000000  0.6508444  3
    844    842    854    856     1  0.0000000  0.6508444  3
    845    841    848    849     1  0.0000000  1.2552000  3
    845    841    848    850     1  0.0000000  1.2552000  3
    845    857    863    864     1  0.0000000  0.6508444  3
    845    857    863    865     1  0.0000000  0.6508444  3
    846    845    841    848     1  0.0000000  1.2552000  3
    846    845    857    863     1  0.0000000  0.6508444  3
    846    845    857    858     1  0.0000000  0.6508444  3
    846    845    857    859     1  0.0000000  0.6508444  3
    847    845    841    848     1  0.0000000  1.2552000  3
    847    845    857    863     1  0.0000000  0.6508444  3
    847    845    857    858     1  0.0000000  0.6508444  3
    847    845    857    859     1  0.0000000  0.6508444  3
    848    851    860    861     1  0.0000000  0.6508444  3
    848    851    860    862     1  0.0000000  0.6508444  3
    849    848    851    860     1  0.0000000  0.6508444  3
    849    848    851    852     1  0.0000000  0.6508444  3
    849    848    851    853     1  0.0000000  0.6508444  3
    850    848    851    860     1  0.0000000  0.6508444  3
    850    848    851    852     1  0.0000000  0.6508444  3
    850    848    851    853     1  0.0000000  0.6508444  3
    852    851    860    869     1  0.0000000  1.0460000  1
    852    851    860    869     1  0.0000000  0.0000000  3
    852    851    860    861     1  0.0000000  0.6508444  3
    852    851    860    862     1  0.0000000  0.6508444  3
    853    851    860    869     1  0.0000000  1.0460000  1
    853    851    860    869     1  0.0000000  0.0000000  3
    853    851    860    861     1  0.0000000  0.6508444  3
    853    851    860    862     1  0.0000000  0.6508444  3
    855    854    866   1797     1  0.0000000  1.0460000  1
    855    854    866   1797     1  0.0000000  0.0000000  3
    855    854    866    867     1  0.0000000  0.6508444  3
    855    854    866    868     1  0.0000000  0.6508444  3
    856    854    866   1797     1  0.0000000  1.0460000  1
    856    854    866   1797     1  0.0000000  0.0000000  3
    856    854    866    867     1  0.0000000  0.6508444  3
    856    854    866    868     1  0.0000000  0.6508444  3
    858    857    863   1768     1  0.0000000  1.0460000  1
    858    857    863   1768     1  0.0000000  0.0000000  3
    858    857    863    864     1  0.0000000  0.6508444  3
    858    857    863    865     1  0.0000000  0.6508444  3
    859    857    863   1768     1  0.0000000  1.0460000  1
    859    857    863   1768     1  0.0000000  0.0000000  3
    859    857    863    864     1  0.0000000  0.6508444  3
    859    857    863    865     1  0.0000000  0.6508444  3
    863   1768   1759   1760     1  0.0000000  1.6038667  3
    863   1768   1759   1761     1  0.0000000  1.6038667  3
    864    863   1768   1759     1  0.0000000  1.6038667  3
    865    863   1768   1759     1  0.0000000  1.6038667  3
    866   1797   1788   1789     1  0.0000000  1.6038667  3
    866   1797   1788   1790     1  0.0000000  1.6038667  3
    867    866   1797   1788     1  0.0000000  1.6038667  3
    868    866   1797   1788     1  0.0000000  1.6038667  3
    870    871    883    884     1  0.0000000  0.6508444  3
    870    871    883    885     1  0.0000000  0.6508444  3
    870    874    886    887     1  0.0000000  0.6508444  3
    870    874    886    888     1  0.0000000  0.6508444  3
    870    877    880    881     1  0.0000000  0.6508444  3
    870    877    880    882     1  0.0000000  0.6508444  3
    871    870    874    875     1  0.0000000  1.2552000  3
    871    870    874    876     1  0.0000000  1.2552000  3
    871    870    877    878     1  0.0000000  1.2552000  3
    871    870    877    879     1  0.0000000  1.2552000  3
    871    883    895    896     1  0.0000000  0.6508444  3
    871    883    895    897     1  0.0000000  0.6508444  3
    872    871    870    874     1  0.0000000  1.2552000  3
    872    871    870    877     1  0.0000000  1.2552000  3
    872    871    883    895     1  0.0000000  0.6508444  3
    872    871    883    884     1  0.0000000  0.6508444  3
    872    871    883    885     1  0.0000000  0.6508444  3
    873    871    870    874     1  0.0000000  1.2552000  3
    873    871    870    877     1  0.0000000  1.2552000  3
    873    871    883    895     1  0.0000000  0.6508444  3
    873    871    883    884     1  0.0000000  0.6508444  3
    873    871    883    885     1  0.0000000  0.6508444  3
    874    870    877    878     1  0.0000000  1.2552000  3
    874    870    877    879     1  0.0000000  1.2552000  3
    874    886    892    893     1  0.0000000  0.6508444  3
    874    886    892    894     1  0.0000000  0.6508444  3
    875    874    870    877     1  0.0000000  1.2552000  3
    875    874    886    892     1  0.0000000  0.6508444  3
    875    874    886    887     1  0.0000000  0.6508444  3
    875    874    886    888     1  0.0000000  0.6508444  3
    876    874    870    877     1  0.0000000  1.2552000  3
    876    874    886    892     1  0.0000000  0.6508444  3
    876    874    886    887     1  0.0000000  0.6508444  3
    876    874    886    888     1  0.0000000  0.6508444  3
    877    880    889    890     1  0.0000000  0.6508444  3
    877    880    889    891     1  0.0000000  0.6508444  3
    878    877    880    889     1  0.0000000  0.6508444  3
    878    877    880    881     1  0.0000000  0.6508444  3
    878    877    880    882     1  0.0000000  0.6508444  3
    879    877    880    889     1  0.0000000  0.6508444  3
    879    877    880    881     1  0.0000000  0.6508444  3
    879    877    880    882     1  0.0000000  0.6508444  3
    881    880    889    898     1  0.0000000  1.0460000  1
    881    880    889    898     1  0.0000000  0.0000000  3
    881    880    889    890     1  0.0000000  0.6508444  3
    881    880    889    891     1  0.0000000  0.6508444  3
    882    880    889    898     1  0.0000000  1.0460000  1
    882    880    889    898     1  0.0000000  0.0000000  3
    882    880    889    890     1  0.0000000  0.6508444  3
    882    880    889    891     1  0.0000000  0.6508444  3
    884    883    895   1859     1  0.0000000  1.0460000  1
    884    883    895   1859     1  0.0000000  0.0000000  3
    884    883    895    896     1  0.0000000  0.6508444  3
    884    883    895    897     1  0.0000000  0.6508444  3
    885    883    895   1859     1  0.0000000  1.0460000  1
    885    883    895   1859     1  0.0000000  0.0000000  3
    885    883    895    896     1  0.0000000  0.6508444  3
    885    883    895    897     1  0.0000000  0.6508444  3
    887    886    892   1828     1  0.0000000  1.0460000  1
    887    886    892   1828     1  0.0000000  0.0000000  3
    887    886    892    893     1  0.0000000  0.6508444  3
    887    886    892    894     1  0.0000000  0.6508444  3
    888    886    892   1828     1  0.0000000  1.0460000  1
    888    886    892   1828     1  0.0000000  0.0000000  3
    888    886    892    893     1  0.0000000  0.6508444  3
    888    886    892    894     1  0.0000000  0.6508444  3
    892   1828   1798   1799     1  0.0000000  1.6038667  3
    892   1828   1798   1800     1  0.0000000  1.6038667  3
    893    892   1828   1798     1  0.0000000  1.6038667  3
    894    892   1828   1798     1  0.0000000  1.6038667  3
    895   1859   1829   1830     1  0.0000000  1.6038667  3
    895   1859   1829   1831     1  0.0000000  1.6038667  3
    896    895   1859   1829     1  0.0000000  1.6038667  3
    897    895   1859   1829     1  0.0000000  1.6038667  3
    899    900    912    913     1  0.0000000  0.6508444  3
    899    900    912    914     1  0.0000000  0.6508444  3
    899    903    915    916     1  0.0000000  0.6508444  3
    899    903    915    917     1  0.0000000  0.6508444  3
    899    906    909    910     1  0.0000000  0.6508444  3
    899    906    909    911     1  0.0000000  0.6508444  3
    900    899    903    904     1  0.0000000  1.2552000  3
    900    899    903    905     1  0.0000000  1.2552000  3
    900    899    906    907     1  0.0000000  1.2552000  3
    900    899    906    908     1  0.0000000  1.2552000  3
    900    912    924    925     1  0.0000000  0.6508444  3
    900    912    924    926     1  0.0000000  0.6508444  3
    901    900    899    903     1  0.0000000  1.2552000  3
    901    900    899    906     1  0.0000000  1.2552000  3
    901    900    912    924     1  0.0000000  0.6508444  3
    901    900    912    913     1  0.0000000  0.6508444  3
    901    900    912    914     1  0.0000000  0.6508444  3
    902    900    899    903     1  0.0000000  1.2552000  3
    902    900    899    906     1  0.0000000  1.2552000  3
    902    900    912    924     1  0.0000000  0.6508444  3
    902    900    912    913     1  0.0000000  0.6508444  3
    902    900    912    914     1  0.0000000  0.6508444  3
    903    899    906    907     1  0.0000000  1.2552000  3
    903    899    906    908     1  0.0000000  1.2552000  3
    903    915    921    922     1  0.0000000  0.6508444  3
    903    915    921    923     1  0.0000000  0.6508444  3
    904    903    899    906     1  0.0000000  1.2552000  3
    904    903    915    921     1  0.0000000  0.6508444  3
    904    903    915    916     1  0.0000000  0.6508444  3
    904    903    915    917     1  0.0000000  0.6508444  3
    905    903    899    906     1  0.0000000  1.2552000  3
    905    903    915    921     1  0.0000000  0.6508444  3
    905    903    915    916     1  0.0000000  0.6508444  3
    905    903    915    917     1  0.0000000  0.6508444  3
    906    909    918    919     1  0.0000000  0.6508444  3
    906    909    918    920     1  0.0000000  0.6508444  3
    907    906    909    918     1  0.0000000  0.6508444  3
    907    906    909    910     1  0.0000000  0.6508444  3
    907    906    909    911     1  0.0000000  0.6508444  3
    908    906    909    918     1  0.0000000  0.6508444  3
    908    906    909    910     1  0.0000000  0.6508444  3
    908    906    909    911     1  0.0000000  0.6508444  3
    910    909    918    927     1  0.0000000  1.0460000  1
    910    909    918    927     1  0.0000000  0.0000000  3
    910    909    918    919     1  0.0000000  0.6508444  3
    910    909    918    920     1  0.0000000  0.6508444  3
    911    909    918    927     1  0.0000000  1.0460000  1
    911    909    918    927     1  0.0000000  0.0000000  3
    911    909    918    919     1  0.0000000  0.6508444  3
    911    909    918    920     1  0.0000000  0.6508444  3
    913    912    924   1921     1  0.0000000  1.0460000  1
    913    912    924   1921     1  0.0000000  0.0000000  3
    913    912    924    925     1  0.0000000  0.6508444  3
    913    912    924    926     1  0.0000000  0.6508444  3
    914    912    924   1921     1  0.0000000  1.0460000  1
    914    912    924   1921     1  0.0000000  0.0000000  3
    914    912    924    925     1  0.0000000  0.6508444  3
    914    912    924    926     1  0.0000000  0.6508444  3
    916    915    921   1890     1  0.0000000  1.0460000  1
    916    915    921   1890     1  0.0000000  0.0000000  3
    916    915    921    922     1  0.0000000  0.6508444  3
    916    915    921    923     1  0.0000000  0.6508444  3
    917    915    921   1890     1  0.0000000  1.0460000  1
    917    915    921   1890     1  0.0000000  0.0000000  3
    917    915    921    922     1  0.0000000  0.6508444  3
    917    915    921    923     1  0.0000000  0.6508444  3
    921   1890   1860   1861     1  0.0000000  1.6038667  3
    921   1890   1860   1862     1  0.0000000  1.6038667  3
    922    921   1890   1860     1  0.0000000  1.6038667  3
    923    921   1890   1860     1  0.0000000  1.6038667  3
    924   1921   1891   1892     1  0.0000000  1.6038667  3
    924   1921   1891   1893     1  0.0000000  1.6038667  3
    925    924   1921   1891     1  0.0000000  1.6038667  3
    926    924   1921   1891     1  0.0000000  1.6038667  3
    928    929    941    942     1  0.0000000  0.6508444  3
    928    929    941    943     1  0.0000000  0.6508444  3
    928    932    944    945     1  0.0000000  0.6508444  3
    928    932    944    946     1  0.0000000  0.6508444  3
    928    935    938    939     1  0.0000000  0.6508444  3
    928    935    938    940     1  0.0000000  0.6508444  3
    929    928    932    933     1  0.0000000  1.2552000  3
    929    928    932    934     1  0.0000000  1.2552000  3
    929    928    935    936     1  0.0000000  1.2552000  3
    929    928    935    937     1  0.0000000  1.2552000  3
    929    941    953    954     1  0.0000000  0.6508444  3
    929    941    953    955     1  0.0000000  0.6508444  3
    930    929    928    932     1  0.0000000  1.2552000  3
    930    929    928    935     1  0.0000000  1.2552000  3
    930    929    941    953     1  0.0000000  0.6508444  3
    930    929    941    942     1  0.0000000  0.6508444  3
    930    929    941    943     1  0.0000000  0.6508444  3
    931    929    928    932     1  0.0000000  1.2552000  3
    931    929    928    935     1  0.0000000  1.2552000  3
    931    929    941    953     1  0.0000000  0.6508444  3
    931    929    941    942     1  0.0000000  0.6508444  3
    931    929    941    943     1  0.0000000  0.6508444  3
    932    928    935    936     1  0.0000000  1.2552000  3
    932    928    935    937     1  0.0000000  1.2552000  3
    932    944    950    951     1  0.0000000  0.6508444  3
    932    944    950    952     1  0.0000000  0.6508444  3
    933    932    928    935     1  0.0000000  1.2552000  3
    933    932    944    950     1  0.0000000  0.6508444  3
    933    932    944    945     1  0.0000000  0.6508444  3
    933    932    944    946     1  0.0000000  0.6508444  3
    934    932    928    935     1  0.0000000  1.2552000  3
    934    932    944    950     1  0.0000000  0.6508444  3
    934    932    944    945     1  0.0000000  0.6508444  3
    934    932    944    946     1  0.0000000  0.6508444  3
    935    938    947    948     1  0.0000000  0.6508444  3
    935    938    947    949     1  0.0000000  0.6508444  3
    936    935    938    947     1  0.0000000  0.6508444  3
    936    935    938    939     1  0.0000000  0.6508444  3
    936    935    938    940     1  0.0000000  0.6508444  3
    937    935    938    947     1  0.0000000  0.6508444  3
    937    935    938    939     1  0.0000000  0.6508444  3
    937    935    938    940     1  0.0000000  0.6508444  3
    939    938    947    956     1  0.0000000  1.0460000  1
    939    938    947    956     1  0.0000000  0.0000000  3
    939    938    947    948     1  0.0000000  0.6508444  3
    939    938    947    949     1  0.0000000  0.6508444  3
    940    938    947    956     1  0.0000000  1.0460000  1
    940    938    947    956     1  0.0000000  0.0000000  3
    940    938    947    948     1  0.0000000  0.6508444  3
    940    938    947    949     1  0.0000000  0.6508444  3
    942    941    953   1983     1  0.0000000  1.0460000  1
    942    941    953   1983     1  0.0000000  0.0000000  3
    942    941    953    954     1  0.0000000  0.6508444  3
    942    941    953    955     1  0.0000000  0.6508444  3
    943    941    953   1983     1  0.0000000  1.0460000  1
    943    941    953   1983     1  0.0000000  0.0000000  3
    943    941    953    954     1  0.0000000  0.6508444  3
    943    941    953    955     1  0.0000000  0.6508444  3
    945    944    950   1952     1  0.0000000  1.0460000  1
    945    944    950   1952     1  0.0000000  0.0000000  3
    945    944    950    951     1  0.0000000  0.6508444  3
    945    944    950    952     1  0.0000000  0.6508444  3
    946    944    950   1952     1  0.0000000  1.0460000  1
    946    944    950   1952     1  0.0000000  0.0000000  3
    946    944    950    951     1  0.0000000  0.6508444  3
    946    944    950    952     1  0.0000000  0.6508444  3
    950   1952   1922   1923     1  0.0000000  1.6038667  3
    950   1952   1922   1924     1  0.0000000  1.6038667  3
    951    950   1952   1922     1  0.0000000  1.6038667  3
    952    950   1952   1922     1  0.0000000  1.6038667  3
    953   1983   1953   1954     1  0.0000000  1.6038667  3
    953   1983   1953   1955     1  0.0000000  1.6038667  3
    954    953   1983   1953     1  0.0000000  1.6038667  3
    955    953   1983   1953     1  0.0000000  1.6038667  3
    957    958    970    971     1  0.0000000  0.6508444  3
    957    958    970    972     1  0.0000000  0.6508444  3
    957    961    973    974     1  0.0000000  0.6508444  3
    957    961    973    975     1  0.0000000  0.6508444  3
    957    964    967    968     1  0.0000000  0.6508444  3
    957    964    967    969     1  0.0000000  0.6508444  3
    958    957    961    962     1  0.0000000  1.2552000  3
    958    957    961    963     1  0.0000000  1.2552000  3
    958    957    964    965     1  0.0000000  1.2552000  3
    958    957    964    966     1  0.0000000  1.2552000  3
    958    970    982    983     1  0.0000000  0.6508444  3
    958    970    982    984     1  0.0000000  0.6508444  3
    959    958    957    961     1  0.0000000  1.2552000  3
    959    958    957    964     1  0.0000000  1.2552000  3
    959    958    970    982     1  0.0000000  0.6508444  3
    959    958    970    971     1  0.0000000  0.6508444  3
    959    958    970    972     1  0.0000000  0.6508444  3
    960    958    957    961     1  0.0000000  1.2552000  3
    960    958    957    964     1  0.0000000  1.2552000  3
    960    958    970    982     1  0.0000000  0.6508444  3
    960    958    970    971     1  0.0000000  0.6508444  3
    960    958    970    972     1  0.0000000  0.6508444  3
    961    957    964    965     1  0.0000000  1.2552000  3
    961    957    964    966     1  0.0000000  1.2552000  3
    961    973    979    980     1  0.0000000  0.6508444  3
    961    973    979    981     1  0.0000000  0.6508444  3
    962    961    957    964     1  0.0000000  1.2552000  3
    962    961    973    979     1  0.0000000  0.6508444  3
    962    961    973    974     1  0.0000000  0.6508444  3
    962    961    973    975     1  0.0000000  0.6508444  3
    963    961    957    964     1  0.0000000  1.2552000  3
    963    961    973    979     1  0.0000000  0.6508444  3
    963    961    973    974     1  0.0000000  0.6508444  3
    963    961    973    975     1  0.0000000  0.6508444  3
    964    967    976    977     1  0.0000000  0.6508444  3
    964    967    976    978     1  0.0000000  0.6508444  3
    965    964    967    976     1  0.0000000  0.6508444  3
    965    964    967    968     1  0.0000000  0.6508444  3
    965    964    967    969     1  0.0000000  0.6508444  3
    966    964    967    976     1  0.0000000  0.6508444  3
    966    964    967    968     1  0.0000000  0.6508444  3
    966    964    967    969     1  0.0000000  0.6508444  3
    968    967    976    985     1  0.0000000  1.0460000  1
    968    967    976    985     1  0.0000000  0.0000000  3
    968    967    976    977     1  0.0000000  0.6508444  3
    968    967    976    978     1  0.0000000  0.6508444  3
    969    967    976    985     1  0.0000000  1.0460000  1
    969    967    976    985     1  0.0000000  0.0000000  3
    969    967    976    977     1  0.0000000  0.6508444  3
    969    967    976    978     1  0.0000000  0.6508444  3
    971    970    982   2045     1  0.0000000  1.0460000  1
    971    970    982   2045     1  0.0000000  0.0000000  3
    971    970    982    983     1  0.0000000  0.6508444  3
    971    970    982    984     1  0.0000000  0.6508444  3
    972    970    982   2045     1  0.0000000  1.0460000  1
    972    970    982   2045     1  0.0000000  0.0000000  3
    972    970    982    983     1  0.0000000  0.6508444  3
    972    970    982    984     1  0.0000000  0.6508444  3
    974    973    979   2014     1  0.0000000  1.0460000  1
    974    973    979   2014     1  0.0000000  0.0000000  3
    974    973    979    980     1  0.0000000  0.6508444  3
    974    973    979    981     1  0.0000000  0.6508444  3
    975    973    979   2014     1  0.0000000  1.0460000  1
    975    973    979   2014     1  0.0000000  0.0000000  3
    975    973    979    980     1  0.0000000  0.6508444  3
    975    973    979    981     1  0.0000000  0.6508444  3
    979   2014   1984   1985     1  0.0000000  1.6038667  3
    979   2014   1984   1986     1  0.0000000  1.6038667  3
    980    979   2014   1984     1  0.0000000  1.6038667  3
    981    979   2014   1984     1  0.0000000  1.6038667  3
    982   2045   2015   2016     1  0.0000000  1.6038667  3
    982   2045   2015   2017     1  0.0000000  1.6038667  3
    983    982   2045   2015     1  0.0000000  1.6038667  3
    984    982   2045   2015     1  0.0000000  1.6038667  3
    986    987    999   1000     1  0.0000000  0.6508444  3
    986    987    999   1001     1  0.0000000  0.6508444  3
    986    990   1002   1003     1  0.0000000  0.6508444  3
    986    990   1002   1004     1  0.0000000  0.6508444  3
    986    993    996    997     1  0.0000000  0.6508444  3
    986    993    996    998     1  0.0000000  0.6508444  3
    987    986    990    991     1  0.0000000  1.2552000  3
    987    986    990    992     1  0.0000000  1.2552000  3
    987    986    993    994     1  0.0000000  1.2552000  3
    987    986    993    995     1  0.0000000  1.2552000  3
    987    999   1011   1012     1  0.0000000  0.6508444  3
    987    999   1011   1013     1  0.0000000  0.6508444  3
    988    987    986    990     1  0.0000000  1.2552000  3
    988    987    986    993     1  0.0000000  1.2552000  3
    988    987    999   1011     1  0.0000000  0.6508444  3
    988    987    999   1000     1  0.0000000  0.6508444  3
    988    987    999   1001     1  0.0000000  0.6508444  3
    989    987    986    990     1  0.0000000  1.2552000  3
    989    987    986    993     1  0.0000000  1.2552000  3
    989    987    999   1011     1  0.0000000  0.6508444  3
    989    987    999   1000     1  0.0000000  0.6508444  3
    989    987    999   1001     1  0.0000000  0.6508444  3
    990    986    993    994     1  0.0000000  1.2552000  3
    990    986    993    995     1  0.0000000  1.2552000  3
    990   1002   1008   1009     1  0.0000000  0.6508444  3
    990   1002   1008   1010     1  0.0000000  0.6508444  3
    991    990    986    993     1  0.0000000  1.2552000  3
    991    990   1002   1008     1  0.0000000  0.6508444  3
    991    990   1002   1003     1  0.0000000  0.6508444  3
    991    990   1002   1004     1  0.0000000  0.6508444  3
    992    990    986    993     1  0.0000000  1.2552000  3
    992    990   1002   1008     1  0.0000000  0.6508444  3
    992    990   1002   1003     1  0.0000000  0.6508444  3
    992    990   1002   1004     1  0.0000000  0.6508444  3
    993    996   1005   1006     1  0.0000000  0.6508444  3
    993    996   1005   1007     1  0.0000000  0.6508444  3
    994    993    996   1005     1  0.0000000  0.6508444  3
    994    993    996    997     1  0.0000000  0.6508444  3
    994    993    996    998     1  0.0000000  0.6508444  3
    995    993    996   1005     1  0.0000000  0.6508444  3
    995    993    996    997     1  0.0000000  0.6508444  3
    995    993    996    998     1  0.0000000  0.6508444  3
    997    996   1005   1014     1  0.0000000  1.0460000  1
    997    996   1005   1014     1  0.0000000  0.0000000  3
    997    996   1005   1006     1  0.0000000  0.6508444  3
    997    996   1005   1007     1  0.0000000  0.6508444  3
    998    996   1005   1014     1  0.0000000  1.0460000  1
    998    996   1005   1014     1  0.0000000  0.0000000  3
    998    996   1005   1006     1  0.0000000  0.6508444  3
    998    996   1005   1007     1  0.0000000  0.6508444  3
   1000    999   1011   2107     1  0.0000000  1.0460000  1
   1000    999   1011   2107     1  0.0000000  0.0000000  3
   1000    999   1011   1012     1  0.0000000  0.6508444  3
   1000    999   1011   1013     1  0.0000000  0.6508444  3
   1001    999   1011   2107     1  0.0000000  1.0460000  1
   1001    999   1011   2107     1  0.0000000  0.0000000  3
   1001    999   1011   1012     1  0.0000000  0.6508444  3
   1001    999   1011   1013     1  0.0000000  0.6508444  3
   1003   1002   1008   2076     1  0.0000000  1.0460000  1
   1003   1002   1008   2076     1  0.0000000  0.0000000  3
   1003   1002   1008   1009     1  0.0000000  0.6508444  3
   1003   1002   1008   1010     1  0.0000000  0.6508444  3
   1004   1002   1008   2076     1  0.0000000  1.0460000  1
   1004   1002   1008   2076     1  0.0000000  0.0000000  3
   1004   1002   1008   1009     1  0.0000000  0.6508444  3
   1004   1002   1008   1010     1  0.0000000  0.6508444  3
   1008   2076   2046   2047     1  0.0000000  1.6038667  3
   1008   2076   2046   2048     1  0.0000000  1.6038667  3
   1009   1008   2076   2046     1  0.0000000  1.6038667  3
   1010   1008   2076   2046     1  0.0000000  1.6038667  3
   1011   2107   2077   2078     1  0.0000000  1.6038667  3
   1011   2107   2077   2079     1  0.0000000  1.6038667  3
   1012   1011   2107   2077     1  0.0000000  1.6038667  3
   1013   1011   2107   2077     1  0.0000000  1.6038667  3
   1015   1016   1028   1029     1  0.0000000  0.6508444  3
   1015   1016   1028   1030     1  0.0000000  0.6508444  3
   1015   1019   1031   1032     1  0.0000000  0.6508444  3
   1015   1019   1031   1033     1  0.0000000  0.6508444  3
   1015   1022   1025   1026     1  0.0000000  0.6508444  3
   1015   1022   1025   1027     1  0.0000000  0.6508444  3
   1016   1015   1019   1020     1  0.0000000  1.2552000  3
   1016   1015   1019   1021     1  0.0000000  1.2552000  3
   1016   1015   1022   1023     1  0.0000000  1.2552000  3
   1016   1015   1022   1024     1  0.0000000  1.2552000  3
   1016   1028   1040   1041     1  0.0000000  0.6508444  3
   1016   1028   1040   1042     1  0.0000000  0.6508444  3
   1017   1016   1015   1019     1  0.0000000  1.2552000  3
   1017   1016   1015   1022     1  0.0000000  1.2552000  3
   1017   1016   1028   1040     1  0.0000000  0.6508444  3
   1017   1016   1028   1029     1  0.0000000  0.6508444  3
   1017   1016   1028   1030     1  0.0000000  0.6508444  3
   1018   1016   1015   1019     1  0.0000000  1.2552000  3
   1018   1016   1015   1022     1  0.0000000  1.2552000  3
   1018   1016   1028   1040     1  0.0000000  0.6508444  3
   1018   1016   1028   1029     1  0.0000000  0.6508444  3
   1018   1016   1028   1030     1  0.0000000  0.6508444  3
   1019   1015   1022   1023     1  0.0000000  1.2552000  3
   1019   1015   1022   1024     1  0.0000000  1.2552000  3
   1019   1031   1037   1038     1  0.0000000  0.6508444  3
   1019   1031   1037   1039     1  0.0000000  0.6508444  3
   1020   1019   1015   1022     1  0.0000000  1.2552000  3
   1020   1019   1031   1037     1  0.0000000  0.6508444  3
   1020   1019   1031   1032     1  0.0000000  0.6508444  3
   1020   1019   1031   1033     1  0.0000000  0.6508444  3
   1021   1019   1015   1022     1  0.0000000  1.2552000  3
   1021   1019   1031   1037     1  0.0000000  0.6508444  3
   1021   1019   1031   1032     1  0.0000000  0.6508444  3
   1021   1019   1031   1033     1  0.0000000  0.6508444  3
   1022   1025   1034   1035     1  0.0000000  0.6508444  3
   1022   1025   1034   1036     1  0.0000000  0.6508444  3
   1023   1022   1025   1034     1  0.0000000  0.6508444  3
   1023   1022   1025   1026     1  0.0000000  0.6508444  3
   1023   1022   1025   1027     1  0.0000000  0.6508444  3
   1024   1022   1025   1034     1  0.0000000  0.6508444  3
   1024   1022   1025   1026     1  0.0000000  0.6508444  3
   1024   1022   1025   1027     1  0.0000000  0.6508444  3
   1026   1025   1034   1043     1  0.0000000  1.0460000  1
   1026   1025   1034   1043     1  0.0000000  0.0000000  3
   1026   1025   1034   1035     1  0.0000000  0.6508444  3
   1026   1025   1034   1036     1  0.0000000  0.6508444  3
   1027   1025   1034   1043     1  0.0000000  1.0460000  1
   1027   1025   1034   1043     1  0.0000000  0.0000000  3
   1027   1025   1034   1035     1  0.0000000  0.6508444  3
   1027   1025   1034   1036     1  0.0000000  0.6508444  3
   1029   1028   1040   2169     1  0.0000000  1.0460000  1
   1029   1028   1040   2169     1  0.0000000  0.0000000  3
   1029   1028   1040   1041     1  0.0000000  0.6508444  3
   1029   1028   1040   1042     1  0.0000000  0.6508444  3
   1030   1028   1040   2169     1  0.0000000  1.0460000  1
   1030   1028   1040   2169     1  0.0000000  0.0000000  3
   1030   1028   1040   1041     1  0.0000000  0.6508444  3
   1030   1028   1040   1042     1  0.0000000  0.6508444  3
   1032   1031   1037   2138     1  0.0000000  1.0460000  1
   1032   1031   1037   2138     1  0.0000000  0.0000000  3
   1032   1031   1037   1038     1  0.0000000  0.6508444  3
   1032   1031   1037   1039     1  0.0000000  0.6508444  3
   1033   1031   1037   2138     1  0.0000000  1.0460000  1
   1033   1031   1037   2138     1  0.0000000  0.0000000  3
   1033   1031   1037   1038     1  0.0000000  0.6508444  3
   1033   1031   1037   1039     1  0.0000000  0.6508444  3
   1037   2138   2108   2109     1  0.0000000  1.6038667  3
   1037   2138   2108   2110     1  0.0000000  1.6038667  3
   1038   1037   2138   2108     1  0.0000000  1.6038667  3
   1039   1037   2138   2108     1  0.0000000  1.6038667  3
   1040   2169   2139   2140     1  0.0000000  1.6038667  3
   1040   2169   2139   2141     1  0.0000000  1.6038667  3
   1041   1040   2169   2139     1  0.0000000  1.6038667  3
   1042   1040   2169   2139     1  0.0000000  1.6038667  3
   1044   1045   1057   1058     1  0.0000000  0.6508444  3
   1044   1045   1057   1059     1  0.0000000  0.6508444  3
   1044   1048   1060   1061     1  0.0000000  0.6508444  3
   1044   1048   1060   1062     1  0.0000000  0.6508444  3
   1044   1051   1054   1055     1  0.0000000  0.6508444  3
   1044   1051   1054   1056     1  0.0000000  0.6508444  3
   1045   1044   1048   1049     1  0.0000000  1.2552000  3
   1045   1044   1048   1050     1  0.0000000  1.2552000  3
   1045   1044   1051   1052     1  0.0000000  1.2552000  3
   1045   1044   1051   1053     1  0.0000000  1.2552000  3
   1045   1057   1069   1070     1  0.0000000  0.6508444  3
   1045   1057   1069   1071     1  0.0000000  0.6508444  3
   1046   1045   1044   1048     1  0.0000000  1.2552000  3
   1046   1045   1044   1051     1  0.0000000  1.2552000  3
   1046   1045   1057   1069     1  0.0000000  0.6508444  3
   1046   1045   1057   1058     1  0.0000000  0.6508444  3
   1046   1045   1057   1059     1  0.0000000  0.6508444  3
   1047   1045   1044   1048     1  0.0000000  1.2552000  3
   1047   1045   1044   1051     1  0.0000000  1.2552000  3
   1047   1045   1057   1069     1  0.0000000  0.6508444  3
   1047   1045   1057   1058     1  0.0000000  0.6508444  3
   1047   1045   1057   1059     1  0.0000000  0.6508444  3
   1048   1044   1051   1052     1  0.0000000  1.2552000  3
   1048   1044   1051   1053     1  0.0000000  1.2552000  3
   1048   1060   1066   1067     1  0.0000000  0.6508444  3
   1048   1060   1066   1068     1  0.0000000  0.6508444  3
   1049   1048   1044   1051     1  0.0000000  1.2552000  3
   1049   1048   1060   1066     1  0.0000000  0.6508444  3
   1049   1048   1060   1061     1  0.0000000  0.6508444  3
   1049   1048   1060   1062     1  0.0000000  0.6508444  3
   1050   1048   1044   1051     1  0.0000000  1.2552000  3
   1050   1048   1060   1066     1  0.0000000  0.6508444  3
   1050   1048   1060   1061     1  0.0000000  0.6508444  3
   1050   1048   1060   1062     1  0.0000000  0.6508444  3
   1051   1054   1063   1064     1  0.0000000  0.6508444  3
   1051   1054   1063   1065     1  0.0000000  0.6508444  3
   1052   1051   1054   1063     1  0.0000000  0.6508444  3
   1052   1051   1054   1055     1  0.0000000  0.6508444  3
   1052   1051   1054   1056     1  0.0000000  0.6508444  3
   1053   1051   1054   1063     1  0.0000000  0.6508444  3
   1053   1051   1054   1055     1  0.0000000  0.6508444  3
   1053   1051   1054   1056     1  0.0000000  0.6508444  3
   1055   1054   1063   1072     1  0.0000000  1.0460000  1
   1055   1054   1063   1072     1  0.0000000  0.0000000  3
   1055   1054   1063   1064     1  0.0000000  0.6508444  3
   1055   1054   1063   1065     1  0.0000000  0.6508444  3
   1056   1054   1063   1072     1  0.0000000  1.0460000  1
   1056   1054   1063   1072     1  0.0000000  0.0000000  3
   1056   1054   1063   1064     1  0.0000000  0.6508444  3
   1056   1054   1063   1065     1  0.0000000  0.6508444  3
   1058   1057   1069   2231     1  0.0000000  1.0460000  1
   1058   1057   1069   2231     1  0.0000000  0.0000000  3
   1058   1057   1069   1070     1  0.0000000  0.6508444  3
   1058   1057   1069   1071     1  0.0000000  0.6508444  3
   1059   1057   1069   2231     1  0.0000000  1.0460000  1
   1059   1057   1069   2231     1  0.0000000  0.0000000  3
   1059   1057   1069   1070     1  0.0000000  0.6508444  3
   1059   1057   1069   1071     1  0.0000000  0.6508444  3
   1061   1060   1066   2200     1  0.0000000  1.0460000  1
   1061   1060   1066   2200     1  0.0000000  0.0000000  3
   1061   1060   1066   1067     1  0.0000000  0.6508444  3
   1061   1060   1066   1068     1  0.0000000  0.6508444  3
   1062   1060   1066   2200     1  0.0000000  1.0460000  1
   1062   1060   1066   2200     1  0.0000000  0.0000000  3
   1062   1060   1066   1067     1  0.0000000  0.6508444  3
   1062   1060   1066   1068     1  0.0000000  0.6508444  3
   1066   2200   2170   2171     1  0.0000000  1.6038667  3
   1066   2200   2170   2172     1  0.0000000  1.6038667  3
   1067   1066   2200   2170     1  0.0000000  1.6038667  3
   1068   1066   2200   2170     1  0.0000000  1.6038667  3
   1069   2231   2201   2202     1  0.0000000  1.6038667  3
   1069   2231   2201   2203     1  0.0000000  1.6038667  3
   1070   1069   2231   2201     1  0.0000000  1.6038667  3
   1071   1069   2231   2201     1  0.0000000  1.6038667  3
   1073   1074   1086   1087     1  0.0000000  0.6508444  3
   1073   1074   1086   1088     1  0.0000000  0.6508444  3
   1073   1077   1089   1090     1  0.0000000  0.6508444  3
   1073   1077   1089   1091     1  0.0000000  0.6508444  3
   1073   1080   1083   1084     1  0.0000000  0.6508444  3
   1073   1080   1083   1085     1  0.0000000  0.6508444  3
   1074   1073   1077   1078     1  0.0000000  1.2552000  3
   1074   1073   1077   1079     1  0.0000000  1.2552000  3
   1074   1073   1080   1081     1  0.0000000  1.2552000  3
   1074   1073   1080   1082     1  0.0000000  1.2552000  3
   1074   1086   1098   1099     1  0.0000000  0.6508444  3
   1074   1086   1098   1100     1  0.0000000  0.6508444  3
   1075   1074   1073   1077     1  0.0000000  1.2552000  3
   1075   1074   1073   1080     1  0.0000000  1.2552000  3
   1075   1074   1086   1098     1  0.0000000  0.6508444  3
   1075   1074   1086   1087     1  0.0000000  0.6508444  3
   1075   1074   1086   1088     1  0.0000000  0.6508444  3
   1076   1074   1073   1077     1  0.0000000  1.2552000  3
   1076   1074   1073   1080     1  0.0000000  1.2552000  3
   1076   1074   1086   1098     1  0.0000000  0.6508444  3
   1076   1074   1086   1087     1  0.0000000  0.6508444  3
   1076   1074   1086   1088     1  0.0000000  0.6508444  3
   1077   1073   1080   1081     1  0.0000000  1.2552000  3
   1077   1073   1080   1082     1  0.0000000  1.2552000  3
   1077   1089   1095   1096     1  0.0000000  0.6508444  3
   1077   1089   1095   1097     1  0.0000000  0.6508444  3
   1078   1077   1073   1080     1  0.0000000  1.2552000  3
   1078   1077   1089   1095     1  0.0000000  0.6508444  3
   1078   1077   1089   1090     1  0.0000000  0.6508444  3
   1078   1077   1089   1091     1  0.0000000  0.6508444  3
   1079   1077   1073   1080     1  0.0000000  1.2552000  3
   1079   1077   1089   1095     1  0.0000000  0.6508444  3
   1079   1077   1089   1090     1  0.0000000  0.6508444  3
   1079   1077   1089   1091     1  0.0000000  0.6508444  3
   1080   1083   1092   1093     1  0.0000000  0.6508444  3
   1080   1083   1092   1094     1  0.0000000  0.6508444  3
   1081   1080   1083   1092     1  0.0000000  0.6508444  3
   1081   1080   1083   1084     1  0.0000000  0.6508444  3
   1081   1080   1083   1085     1  0.0000000  0.6508444  3
   1082   1080   1083   1092     1  0.0000000  0.6508444  3
   1082   1080   1083   1084     1  0.0000000  0.6508444  3
   1082   1080   1083   1085     1  0.0000000  0.6508444  3
   1084   1083   1092   1101     1  0.0000000  1.0460000  1
   1084   1083   1092   1101     1  0.0000000  0.0000000  3
   1084   1083   1092   1093     1  0.0000000  0.6508444  3
   1084   1083   1092   1094     1  0.0000000  0.6508444  3
   1085   1083   1092   1101     1  0.0000000  1.0460000  1
   1085   1083   1092   1101     1  0.0000000  0.0000000  3
   1085   1083   1092   1093     1  0.0000000  0.6508444  3
   1085   1083   1092   1094     1  0.0000000  0.6508444  3
   1087   1086   1098   2293     1  0.0000000  1.0460000  1
   1087   1086   1098   2293     1  0.0000000  0.0000000  3
   1087   1086   1098   1099     1  0.0000000  0.6508444  3
   1087   1086   1098   1100     1  0.0000000  0.6508444  3
   1088   1086   1098   2293     1  0.0000000  1.0460000  1
   1088   1086   1098   2293     1  0.0000000  0.0000000  3
   1088   1086   1098   1099     1  0.0000000  0.6508444  3
   1088   1086   1098   1100     1  0.0000000  0.6508444  3
   1090   1089   1095   2262     1  0.0000000  1.0460000  1
   1090   1089   1095   2262     1  0.0000000  0.0000000  3
   1090   1089   1095   1096     1  0.0000000  0.6508444  3
   1090   1089   1095   1097     1  0.0000000  0.6508444  3
   1091   1089   1095   2262     1  0.0000000  1.0460000  1
   1091   1089   1095   2262     1  0.0000000  0.0000000  3
   1091   1089   1095   1096     1  0.0000000  0.6508444  3
   1091   1089   1095   1097     1  0.0000000  0.6508444  3
   1095   2262   2232   2233     1  0.0000000  1.6038667  3
   1095   2262   2232   2234     1  0.0000000  1.6038667  3
   1096   1095   2262   2232     1  0.0000000  1.6038667  3
   1097   1095   2262   2232     1  0.0000000  1.6038667  3
   1098   2293   2263   2264     1  0.0000000  1.6038667  3
   1098   2293   2263   2265     1  0.0000000  1.6038667  3
   1099   1098   2293   2263     1  0.0000000  1.6038667  3
   1100   1098   2293   2263     1  0.0000000  1.6038667  3
   1102   1103   1115   1116     1  0.0000000  0.6508444  3
   1102   1103   1115   1117     1  0.0000000  0.6508444  3
   1102   1106   1118   1119     1  0.0000000  0.6508444  3
   1102   1106   1118   1120     1  0.0000000  0.6508444  3
   1102   1109   1112   1113     1  0.0000000  0.6508444  3
   1102   1109   1112   1114     1  0.0000000  0.6508444  3
   1103   1102   1106   1107     1  0.0000000  1.2552000  3
   1103   1102   1106   1108     1  0.0000000  1.2552000  3
   1103   1102   1109   1110     1  0.0000000  1.2552000  3
   1103   1102   1109   1111     1  0.0000000  1.2552000  3
   1103   1115   1127   1128     1  0.0000000  0.6508444  3
   1103   1115   1127   1129     1  0.0000000  0.6508444  3
   1104   1103   1102   1106     1  0.0000000  1.2552000  3
   1104   1103   1102   1109     1  0.0000000  1.2552000  3
   1104   1103   1115   1127     1  0.0000000  0.6508444  3
   1104   1103   1115   1116     1  0.0000000  0.6508444  3
   1104   1103   1115   1117     1  0.0000000  0.6508444  3
   1105   1103   1102   1106     1  0.0000000  1.2552000  3
   1105   1103   1102   1109     1  0.0000000  1.2552000  3
   1105   1103   1115   1127     1  0.0000000  0.6508444  3
   1105   1103   1115   1116     1  0.0000000  0.6508444  3
   1105   1103   1115   1117     1  0.0000000  0.6508444  3
   1106   1102   1109   1110     1  0.0000000  1.2552000  3
   1106   1102   1109   1111     1  0.0000000  1.2552000  3
   1106   1118   1124   1125     1  0.0000000  0.6508444  3
   1106   1118   1124   1126     1  0.0000000  0.6508444  3
   1107   1106   1102   1109     1  0.0000000  1.2552000  3
   1107   1106   1118   1124     1  0.0000000  0.6508444  3
   1107   1106   1118   1119     1  0.0000000  0.6508444  3
   1107   1106   1118   1120     1  0.0000000  0.6508444  3
   1108   1106   1102   1109     1  0.0000000  1.2552000  3
   1108   1106   1118   1124     1  0.0000000  0.6508444  3
   1108   1106   1118   1119     1  0.0000000  0.6508444  3
   1108   1106   1118   1120     1  0.0000000  0.6508444  3
   1109   1112   1121   1122     1  0.0000000  0.6508444  3
   1109   1112   1121   1123     1  0.0000000  0.6508444  3
   1110   1109   1112   1121     1  0.0000000  0.6508444  3
   1110   1109   1112   1113     1  0.0000000  0.6508444  3
   1110   1109   1112   1114     1  0.0000000  0.6508444  3
   1111   1109   1112   1121     1  0.0000000  0.6508444  3
   1111   1109   1112   1113     1  0.0000000  0.6508444  3
   1111   1109   1112   1114     1  0.0000000  0.6508444  3
   1113   1112   1121   1130     1  0.0000000  1.0460000  1
   1113   1112   1121   1130     1  0.0000000  0.0000000  3
   1113   1112   1121   1122     1  0.0000000  0.6508444  3
   1113   1112   1121   1123     1  0.0000000  0.6508444  3
   1114   1112   1121   1130     1  0.0000000  1.0460000  1
   1114   1112   1121   1130     1  0.0000000  0.0000000  3
   1114   1112   1121   1122     1  0.0000000  0.6508444  3
   1114   1112   1121   1123     1  0.0000000  0.6508444  3
   1116   1115   1127   2355     1  0.0000000  1.0460000  1
   1116   1115   1127   2355     1  0.0000000  0.0000000  3
   1116   1115   1127   1128     1  0.0000000  0.6508444  3
   1116   1115   1127   1129     1  0.0000000  0.6508444  3
   1117   1115   1127   2355     1  0.0000000  1.0460000  1
   1117   1115   1127   2355     1  0.0000000  0.0000000  3
   1117   1115   1127   1128     1  0.0000000  0.6508444  3
   1117   1115   1127   1129     1  0.0000000  0.6508444  3
   1119   1118   1124   2324     1  0.0000000  1.0460000  1
   1119   1118   1124   2324     1  0.0000000  0.0000000  3
   1119   1118   1124   1125     1  0.0000000  0.6508444  3
   1119   1118   1124   1126     1  0.0000000  0.6508444  3
   1120   1118   1124   2324     1  0.0000000  1.0460000  1
   1120   1118   1124   2324     1  0.0000000  0.0000000  3
   1120   1118   1124   1125     1  0.0000000  0.6508444  3
   1120   1118   1124   1126     1  0.0000000  0.6508444  3
   1124   2324   2294   2295     1  0.0000000  1.6038667  3
   1124   2324   2294   2296     1  0.0000000  1.6038667  3
   1125   1124   2324   2294     1  0.0000000  1.6038667  3
   1126   1124   2324   2294     1  0.0000000  1.6038667  3
   1127   2355   2325   2326     1  0.0000000  1.6038667  3
   1127   2355   2325   2327     1  0.0000000  1.6038667  3
   1128   1127   2355   2325     1  0.0000000  1.6038667  3
   1129   1127   2355   2325     1  0.0000000  1.6038667  3
   1131   1132   1144   1145     1  0.0000000  0.6508444  3
   1131   1132   1144   1146     1  0.0000000  0.6508444  3
   1131   1135   1147   1148     1  0.0000000  0.6508444  3
   1131   1135   1147   1149     1  0.0000000  0.6508444  3
   1131   1138   1141   1142     1  0.0000000  0.6508444  3
   1131   1138   1141   1143     1  0.0000000  0.6508444  3
   1132   1131   1135   1136     1  0.0000000  1.2552000  3
   1132   1131   1135   1137     1  0.0000000  1.2552000  3
   1132   1131   1138   1139     1  0.0000000  1.2552000  3
   1132   1131   1138   1140     1  0.0000000  1.2552000  3
   1132   1144   1156   1157     1  0.0000000  0.6508444  3
   1132   1144   1156   1158     1  0.0000000  0.6508444  3
   1133   1132   1131   1135     1  0.0000000  1.2552000  3
   1133   1132   1131   1138     1  0.0000000  1.2552000  3
   1133   1132   1144   1156     1  0.0000000  0.6508444  3
   1133   1132   1144   1145     1  0.0000000  0.6508444  3
   1133   1132   1144   1146     1  0.0000000  0.6508444  3
   1134   1132   1131   1135     1  0.0000000  1.2552000  3
   1134   1132   1131   1138     1  0.0000000  1.2552000  3
   1134   1132   1144   1156     1  0.0000000  0.6508444  3
   1134   1132   1144   1145     1  0.0000000  0.6508444  3
   1134   1132   1144   1146     1  0.0000000  0.6508444  3
   1135   1131   1138   1139     1  0.0000000  1.2552000  3
   1135   1131   1138   1140     1  0.0000000  1.2552000  3
   1135   1147   1153   1154     1  0.0000000  0.6508444  3
   1135   1147   1153   1155     1  0.0000000  0.6508444  3
   1136   1135   1131   1138     1  0.0000000  1.2552000  3
   1136   1135   1147   1153     1  0.0000000  0.6508444  3
   1136   1135   1147   1148     1  0.0000000  0.6508444  3
   1136   1135   1147   1149     1  0.0000000  0.6508444  3
   1137   1135   1131   1138     1  0.0000000  1.2552000  3
   1137   1135   1147   1153     1  0.0000000  0.6508444  3
   1137   1135   1147   1148     1  0.0000000  0.6508444  3
   1137   1135   1147   1149     1  0.0000000  0.6508444  3
   1138   1141   1150   1151     1  0.0000000  0.6508444  3
   1138   1141   1150   1152     1  0.0000000  0.6508444  3
   1139   1138   1141   1150     1  0.0000000  0.6508444  3
   1139   1138   1141   1142     1  0.0000000  0.6508444  3
   1139   1138   1141   1143     1  0.0000000  0.6508444  3
   1140   1138   1141   1150     1  0.0000000  0.6508444  3
   1140   1138   1141   1142     1  0.0000000  0.6508444  3
   1140   1138   1141   1143     1  0.0000000  0.6508444  3
   1142   1141   1150   1159     1  0.0000000  1.0460000  1
   1142   1141   1150   1159     1  0.0000000  0.0000000  3
   1142   1141   1150   1151     1  0.0000000  0.6508444  3
   1142   1141   1150   1152     1  0.0000000  0.6508444  3
   1143   1141   1150   1159     1  0.0000000  1.0460000  1
   1143   1141   1150   1159     1  0.0000000  0.0000000  3
   1143   1141   1150   1151     1  0.0000000  0.6508444  3
   1143   1141   1150   1152     1  0.0000000  0.6508444  3
   1145   1144   1156   2417     1  0.0000000  1.0460000  1
   1145   1144   1156   2417     1  0.0000000  0.0000000  3
   1145   1144   1156   1157     1  0.0000000  0.6508444  3
   1145   1144   1156   1158     1  0.0000000  0.6508444  3
   1146   1144   1156   2417     1  0.0000000  1.0460000  1
   1146   1144   1156   2417     1  0.0000000  0.0000000  3
   1146   1144   1156   1157     1  0.0000000  0.6508444  3
   1146   1144   1156   1158     1  0.0000000  0.6508444  3
   1148   1147   1153   2386     1  0.0000000  1.0460000  1
   1148   1147   1153   2386     1  0.0000000  0.0000000  3
   1148   1147   1153   1154     1  0.0000000  0.6508444  3
   1148   1147   1153   1155     1  0.0000000  0.6508444  3
   1149   1147   1153   2386     1  0.0000000  1.0460000  1
   1149   1147   1153   2386     1  0.0000000  0.0000000  3
   1149   1147   1153   1154     1  0.0000000  0.6508444  3
   1149   1147   1153   1155     1  0.0000000  0.6508444  3
   1153   2386   2356   2357     1  0.0000000  1.6038667  3
   1153   2386   2356   2358     1  0.0000000  1.6038667  3
   1154   1153   2386   2356     1  0.0000000  1.6038667  3
   1155   1153   2386   2356     1  0.0000000  1.6038667  3
   1156   2417   2387   2388     1  0.0000000  1.6038667  3
   1156   2417   2387   2389     1  0.0000000  1.6038667  3
   1157   1156   2417   2387     1  0.0000000  1.6038667  3
   1158   1156   2417   2387     1  0.0000000  1.6038667  3
   1160   1161   1173   1174     1  0.0000000  0.6508444  3
   1160   1161   1173   1175     1  0.0000000  0.6508444  3
   1160   1164   1176   1177     1  0.0000000  0.6508444  3
   1160   1164   1176   1178     1  0.0000000  0.6508444  3
   1160   1167   1170   1171     1  0.0000000  0.6508444  3
   1160   1167   1170   1172     1  0.0000000  0.6508444  3
   1161   1160   1164   1165     1  0.0000000  1.2552000  3
   1161   1160   1164   1166     1  0.0000000  1.2552000  3
   1161   1160   1167   1168     1  0.0000000  1.2552000  3
   1161   1160   1167   1169     1  0.0000000  1.2552000  3
   1161   1173   1185   1186     1  0.0000000  0.6508444  3
   1161   1173   1185   1187     1  0.0000000  0.6508444  3
   1162   1161   1160   1164     1  0.0000000  1.2552000  3
   1162   1161   1160   1167     1  0.0000000  1.2552000  3
   1162   1161   1173   1185     1  0.0000000  0.6508444  3
   1162   1161   1173   1174     1  0.0000000  0.6508444  3
   1162   1161   1173   1175     1  0.0000000  0.6508444  3
   1163   1161   1160   1164     1  0.0000000  1.2552000  3
   1163   1161   1160   1167     1  0.0000000  1.2552000  3
   1163   1161   1173   1185     1  0.0000000  0.6508444  3
   1163   1161   1173   1174     1  0.0000000  0.6508444  3
   1163   1161   1173   1175     1  0.0000000  0.6508444  3
   1164   1160   1167   1168     1  0.0000000  1.2552000  3
   1164   1160   1167   1169     1  0.0000000  1.2552000  3
   1164   1176   1182   1183     1  0.0000000  0.6508444  3
   1164   1176   1182   1184     1  0.0000000  0.6508444  3
   1165   1164   1160   1167     1  0.0000000  1.2552000  3
   1165   1164   1176   1182     1  0.0000000  0.6508444  3
   1165   1164   1176   1177     1  0.0000000  0.6508444  3
   1165   1164   1176   1178     1  0.0000000  0.6508444  3
   1166   1164   1160   1167     1  0.0000000  1.2552000  3
   1166   1164   1176   1182     1  0.0000000  0.6508444  3
   1166   1164   1176   1177     1  0.0000000  0.6508444  3
   1166   1164   1176   1178     1  0.0000000  0.6508444  3
   1167   1170   1179   1180     1  0.0000000  0.6508444  3
   1167   1170   1179   1181     1  0.0000000  0.6508444  3
   1168   1167   1170   1179     1  0.0000000  0.6508444  3
   1168   1167   1170   1171     1  0.0000000  0.6508444  3
   1168   1167   1170   1172     1  0.0000000  0.6508444  3
   1169   1167   1170   1179     1  0.0000000  0.6508444  3
   1169   1167   1170   1171     1  0.0000000  0.6508444  3
   1169   1167   1170   1172     1  0.0000000  0.6508444  3
   1171   1170   1179   1188     1  0.0000000  1.0460000  1
   1171   1170   1179   1188     1  0.0000000  0.0000000  3
   1171   1170   1179   1180     1  0.0000000  0.6508444  3
   1171   1170   1179   1181     1  0.0000000  0.6508444  3
   1172   1170   1179   1188     1  0.0000000  1.0460000  1
   1172   1170   1179   1188     1  0.0000000  0.0000000  3
   1172   1170   1179   1180     1  0.0000000  0.6508444  3
   1172   1170   1179   1181     1  0.0000000  0.6508444  3
   1174   1173   1185   2479     1  0.0000000  1.0460000  1
   1174   1173   1185   2479     1  0.0000000  0.0000000  3
   1174   1173   1185   1186     1  0.0000000  0.6508444  3
   1174   1173   1185   1187     1  0.0000000  0.6508444  3
   1175   1173   1185   2479     1  0.0000000  1.0460000  1
   1175   1173   1185   2479     1  0.0000000  0.0000000  3
   1175   1173   1185   1186     1  0.0000000  0.6508444  3
   1175   1173   1185   1187     1  0.0000000  0.6508444  3
   1177   1176   1182   2448     1  0.0000000  1.0460000  1
   1177   1176   1182   2448     1  0.0000000  0.0000000  3
   1177   1176   1182   1183     1  0.0000000  0.6508444  3
   1177   1176   1182   1184     1  0.0000000  0.6508444  3
   1178   1176   1182   2448     1  0.0000000  1.0460000  1
   1178   1176   1182   2448     1  0.0000000  0.0000000  3
   1178   1176   1182   1183     1  0.0000000  0.6508444  3
   1178   1176   1182   1184     1  0.0000000  0.6508444  3
   1182   2448   2418   2419     1  0.0000000  1.6038667  3
   1182   2448   2418   2420     1  0.0000000  1.6038667  3
   1183   1182   2448   2418     1  0.0000000  1.6038667  3
   1184   1182   2448   2418     1  0.0000000  1.6038667  3
   1185   2479   2449   2450     1  0.0000000  1.6038667  3
   1185   2479   2449   2451     1  0.0000000  1.6038667  3
   1186   1185   2479   2449     1  0.0000000  1.6038667  3
   1187   1185   2479   2449     1  0.0000000  1.6038667  3
   1189   1190   1202   1203     1  0.0000000  0.6508444  3
   1189   1190   1202   1204     1  0.0000000  0.6508444  3
   1189   1193   1205   1206     1  0.0000000  0.6508444  3
   1189   1193   1205   1207     1  0.0000000  0.6508444  3
   1189   1196   1199   1200     1  0.0000000  0.6508444  3
   1189   1196   1199   1201     1  0.0000000  0.6508444  3
   1190   1189   1193   1194     1  0.0000000  1.2552000  3
   1190   1189   1193   1195     1  0.0000000  1.2552000  3
   1190   1189   1196   1197     1  0.0000000  1.2552000  3
   1190   1189   1196   1198     1  0.0000000  1.2552000  3
   1190   1202   1214   1215     1  0.0000000  0.6508444  3
   1190   1202   1214   1216     1  0.0000000  0.6508444  3
   1191   1190   1189   1193     1  0.0000000  1.2552000  3
   1191   1190   1189   1196     1  0.0000000  1.2552000  3
   1191   1190   1202   1214     1  0.0000000  0.6508444  3
   1191   1190   1202   1203     1  0.0000000  0.6508444  3
   1191   1190   1202   1204     1  0.0000000  0.6508444  3
   1192   1190   1189   1193     1  0.0000000  1.2552000  3
   1192   1190   1189   1196     1  0.0000000  1.2552000  3
   1192   1190   1202   1214     1  0.0000000  0.6508444  3
   1192   1190   1202   1203     1  0.0000000  0.6508444  3
   1192   1190   1202   1204     1  0.0000000  0.6508444  3
   1193   1189   1196   1197     1  0.0000000  1.2552000  3
   1193   1189   1196   1198     1  0.0000000  1.2552000  3
   1193   1205   1211   1212     1  0.0000000  0.6508444  3
   1193   1205   1211   1213     1  0.0000000  0.6508444  3
   1194   1193   1189   1196     1  0.0000000  1.2552000  3
   1194   1193   1205   1211     1  0.0000000  0.6508444  3
   1194   1193   1205   1206     1  0.0000000  0.6508444  3
   1194   1193   1205   1207     1  0.0000000  0.6508444  3
   1195   1193   1189   1196     1  0.0000000  1.2552000  3
   1195   1193   1205   1211     1  0.0000000  0.6508444  3
   1195   1193   1205   1206     1  0.0000000  0.6508444  3
   1195   1193   1205   1207     1  0.0000000  0.6508444  3
   1196   1199   1208   1209     1  0.0000000  0.6508444  3
   1196   1199   1208   1210     1  0.0000000  0.6508444  3
   1197   1196   1199   1208     1  0.0000000  0.6508444  3
   1197   1196   1199   1200     1  0.0000000  0.6508444  3
   1197   1196   1199   1201     1  0.0000000  0.6508444  3
   1198   1196   1199   1208     1  0.0000000  0.6508444  3
   1198   1196   1199   1200     1  0.0000000  0.6508444  3
   1198   1196   1199   1201     1  0.0000000  0.6508444  3
   1200   1199   1208   1217     1  0.0000000  1.0460000  1
   1200   1199   1208   1217     1  0.0000000  0.0000000  3
   1200   1199   1208   1209     1  0.0000000  0.6508444  3
   1200   1199   1208   1210     1  0.0000000  0.6508444  3
   1201   1199   1208   1217     1  0.0000000  1.0460000  1
   1201   1199   1208   1217     1  0.0000000  0.0000000  3
   1201   1199   1208   1209     1  0.0000000  0.6508444  3
   1201   1199   1208   1210     1  0.0000000  0.6508444  3
   1203   1202   1214   2541     1  0.0000000  1.0460000  1
   1203   1202   1214   2541     1  0.0000000  0.0000000  3
   1203   1202   1214   1215     1  0.0000000  0.6508444  3
   1203   1202   1214   1216     1  0.0000000  0.6508444  3
   1204   1202   1214   2541     1  0.0000000  1.0460000  1
   1204   1202   1214   2541     1  0.0000000  0.0000000  3
   1204   1202   1214   1215     1  0.0000000  0.6508444  3
   1204   1202   1214   1216     1  0.0000000  0.6508444  3
   1206   1205   1211   2510     1  0.0000000  1.0460000  1
   1206   1205   1211   2510     1  0.0000000  0.0000000  3
   1206   1205   1211   1212     1  0.0000000  0.6508444  3
   1206   1205   1211   1213     1  0.0000000  0.6508444  3
   1207   1205   1211   2510     1  0.0000000  1.0460000  1
   1207   1205   1211   2510     1  0.0000000  0.0000000  3
   1207   1205   1211   1212     1  0.0000000  0.6508444  3
   1207   1205   1211   1213     1  0.0000000  0.6508444  3
   1211   2510   2480   2481     1  0.0000000  1.6038667  3
   1211   2510   2480   2482     1  0.0000000  1.6038667  3
   1212   1211   2510   2480     1  0.0000000  1.6038667  3
   1213   1211   2510   2480     1  0.0000000  1.6038667  3
   1214   2541   2511   2512     1  0.0000000  1.6038667  3
   1214   2541   2511   2513     1  0.0000000  1.6038667  3
   1215   1214   2541   2511     1  0.0000000  1.6038667  3
   1216   1214   2541   2511     1  0.0000000  1.6038667  3
   1218   1219   1231   1232     1  0.0000000  0.6508444  3
   1218   1219   1231   1233     1  0.0000000  0.6508444  3
   1218   1222   1234   1235     1  0.0000000  0.6508444  3
   1218   1222   1234   1236     1  0.0000000  0.6508444  3
   1218   1225   1228   1229     1  0.0000000  0.6508444  3
   1218   1225   1228   1230     1  0.0000000  0.6508444  3
   1219   1218   1222   1223     1  0.0000000  1.2552000  3
   1219   1218   1222   1224     1  0.0000000  1.2552000  3
   1219   1218   1225   1226     1  0.0000000  1.2552000  3
   1219   1218   1225   1227     1  0.0000000  1.2552000  3
   1219   1231   1243   1244     1  0.0000000  0.6508444  3
   1219   1231   1243   1245     1  0.0000000  0.6508444  3
   1220   1219   1218   1222     1  0.0000000  1.2552000  3
   1220   1219   1218   1225     1  0.0000000  1.2552000  3
   1220   1219   1231   1243     1  0.0000000  0.6508444  3
   1220   1219   1231   1232     1  0.0000000  0.6508444  3
   1220   1219   1231   1233     1  0.0000000  0.6508444  3
   1221   1219   1218   1222     1  0.0000000  1.2552000  3
   1221   1219   1218   1225     1  0.0000000  1.2552000  3
   1221   1219   1231   1243     1  0.0000000  0.6508444  3
   1221   1219   1231   1232     1  0.0000000  0.6508444  3
   1221   1219   1231   1233     1  0.0000000  0.6508444  3
   1222   1218   1225   1226     1  0.0000000  1.2552000  3
   1222   1218   1225   1227     1  0.0000000  1.2552000  3
   1222   1234   1240   1241     1  0.0000000  0.6508444  3
   1222   1234   1240   1242     1  0.0000000  0.6508444  3
   1223   1222   1218   1225     1  0.0000000  1.2552000  3
   1223   1222   1234   1240     1  0.0000000  0.6508444  3
   1223   1222   1234   1235     1  0.0000000  0.6508444  3
   1223   1222   1234   1236     1  0.0000000  0.6508444  3
   1224   1222   1218   1225     1  0.0000000  1.2552000  3
   1224   1222   1234   1240     1  0.0000000  0.6508444  3
   1224   1222   1234   1235     1  0.0000000  0.6508444  3
   1224   1222   1234   1236     1  0.0000000  0.6508444  3
   1225   1228   1237   1238     1  0.0000000  0.6508444  3
   1225   1228   1237   1239     1  0.0000000  0.6508444  3
   1226   1225   1228   1237     1  0.0000000  0.6508444  3
   1226   1225   1228   1229     1  0.0000000  0.6508444  3
   1226   1225   1228   1230     1  0.0000000  0.6508444  3
   1227   1225   1228   1237     1  0.0000000  0.6508444  3
   1227   1225   1228   1229     1  0.0000000  0.6508444  3
   1227   1225   1228   1230     1  0.0000000  0.6508444  3
   1229   1228   1237   1246     1  0.0000000  1.0460000  1
   1229   1228   1237   1246     1  0.0000000  0.0000000  3
   1229   1228   1237   1238     1  0.0000000  0.6508444  3
   1229   1228   1237   1239     1  0.0000000  0.6508444  3
   1230   1228   1237   1246     1  0.0000000  1.0460000  1
   1230   1228   1237   1246     1  0.0000000  0.0000000  3
   1230   1228   1237   1238     1  0.0000000  0.6508444  3
   1230   1228   1237   1239     1  0.0000000  0.6508444  3
   1232   1231   1243   2603     1  0.0000000  1.0460000  1
   1232   1231   1243   2603     1  0.0000000  0.0000000  3
   1232   1231   1243   1244     1  0.0000000  0.6508444  3
   1232   1231   1243   1245     1  0.0000000  0.6508444  3
   1233   1231   1243   2603     1  0.0000000  1.0460000  1
   1233   1231   1243   2603     1  0.0000000  0.0000000  3
   1233   1231   1243   1244     1  0.0000000  0.6508444  3
   1233   1231   1243   1245     1  0.0000000  0.6508444  3
   1235   1234   1240   2572     1  0.0000000  1.0460000  1
   1235   1234   1240   2572     1  0.0000000  0.0000000  3
   1235   1234   1240   1241     1  0.0000000  0.6508444  3
   1235   1234   1240   1242     1  0.0000000  0.6508444  3
   1236   1234   1240   2572     1  0.0000000  1.0460000  1
   1236   1234   1240   2572     1  0.0000000  0.0000000  3
   1236   1234   1240   1241     1  0.0000000  0.6508444  3
   1236   1234   1240   1242     1  0.0000000  0.6508444  3
   1240   2572   2542   2543     1  0.0000000  1.6038667  3
   1240   2572   2542   2544     1  0.0000000  1.6038667  3
   1241   1240   2572   2542     1  0.0000000  1.6038667  3
   1242   1240   2572   2542     1  0.0000000  1.6038667  3
   1243   2603   2573   2574     1  0.0000000  1.6038667  3
   1243   2603   2573   2575     1  0.0000000  1.6038667  3
   1244   1243   2603   2573     1  0.0000000  1.6038667  3
   1245   1243   2603   2573     1  0.0000000  1.6038667  3
   1247   1248   1260   1261     1  0.0000000  0.6508444  3
   1247   1248   1260   1262     1  0.0000000  0.6508444  3
   1247   1251   1263   1264     1  0.0000000  0.6508444  3
   1247   1251   1263   1265     1  0.0000000  0.6508444  3
   1247   1254   1257   1258     1  0.0000000  0.6508444  3
   1247   1254   1257   1259     1  0.0000000  0.6508444  3
   1248   1247   1251   1252     1  0.0000000  1.2552000  3
   1248   1247   1251   1253     1  0.0000000  1.2552000  3
   1248   1247   1254   1255     1  0.0000000  1.2552000  3
   1248   1247   1254   1256     1  0.0000000  1.2552000  3
   1248   1260   1272   1273     1  0.0000000  0.6508444  3
   1248   1260   1272   1274     1  0.0000000  0.6508444  3
   1249   1248   1247   1251     1  0.0000000  1.2552000  3
   1249   1248   1247   1254     1  0.0000000  1.2552000  3
   1249   1248   1260   1272     1  0.0000000  0.6508444  3
   1249   1248   1260   1261     1  0.0000000  0.6508444  3
   1249   1248   1260   1262     1  0.0000000  0.6508444  3
   1250   1248   1247   1251     1  0.0000000  1.2552000  3
   1250   1248   1247   1254     1  0.0000000  1.2552000  3
   1250   1248   1260   1272     1  0.0000000  0.6508444  3
   1250   1248   1260   1261     1  0.0000000  0.6508444  3
   1250   1248   1260   1262     1  0.0000000  0.6508444  3
   1251   1247   1254   1255     1  0.0000000  1.2552000  3
   1251   1247   1254   1256     1  0.0000000  1.2552000  3
   1251   1263   1269   1270     1  0.0000000  0.6508444  3
   1251   1263   1269   1271     1  0.0000000  0.6508444  3
   1252   1251   1247   1254     1  0.0000000  1.2552000  3
   1252   1251   1263   1269     1  0.0000000  0.6508444  3
   1252   1251   1263   1264     1  0.0000000  0.6508444  3
   1252   1251   1263   1265     1  0.0000000  0.6508444  3
   1253   1251   1247   1254     1  0.0000000  1.2552000  3
   1253   1251   1263   1269     1  0.0000000  0.6508444  3
   1253   1251   1263   1264     1  0.0000000  0.6508444  3
   1253   1251   1263   1265     1  0.0000000  0.6508444  3
   1254   1257   1266   1267     1  0.0000000  0.6508444  3
   1254   1257   1266   1268     1  0.0000000  0.6508444  3
   1255   1254   1257   1266     1  0.0000000  0.6508444  3
   1255   1254   1257   1258     1  0.0000000  0.6508444  3
   1255   1254   1257   1259     1  0.0000000  0.6508444  3
   1256   1254   1257   1266     1  0.0000000  0.6508444  3
   1256   1254   1257   1258     1  0.0000000  0.6508444  3
   1256   1254   1257   1259     1  0.0000000  0.6508444  3
   1258   1257   1266   1275     1  0.0000000  1.0460000  1
   1258   1257   1266   1275     1  0.0000000  0.0000000  3
   1258   1257   1266   1267     1  0.0000000  0.6508444  3
   1258   1257   1266   1268     1  0.0000000  0.6508444  3
   1259   1257   1266   1275     1  0.0000000  1.0460000  1
   1259   1257   1266   1275     1  0.0000000  0.0000000  3
   1259   1257   1266   1267     1  0.0000000  0.6508444  3
   1259   1257   1266   1268     1  0.0000000  0.6508444  3
   1261   1260   1272   2665     1  0.0000000  1.0460000  1
   1261   1260   1272   2665     1  0.0000000  0.0000000  3
   1261   1260   1272   1273     1  0.0000000  0.6508444  3
   1261   1260   1272   1274     1  0.0000000  0.6508444  3
   1262   1260   1272   2665     1  0.0000000  1.0460000  1
   1262   1260   1272   2665     1  0.0000000  0.0000000  3
   1262   1260   1272   1273     1  0.0000000  0.6508444  3
   1262   1260   1272   1274     1  0.0000000  0.6508444  3
   1264   1263   1269   2634     1  0.0000000  1.0460000  1
   1264   1263   1269   2634     1  0.0000000  0.0000000  3
   1264   1263   1269   1270     1  0.0000000  0.6508444  3
   1264   1263   1269   1271     1  0.0000000  0.6508444  3
   1265   1263   1269   2634     1  0.0000000  1.0460000  1
   1265   1263   1269   2634     1  0.0000000  0.0000000  3
   1265   1263   1269   1270     1  0.0000000  0.6508444  3
   1265   1263   1269   1271     1  0.0000000  0.6508444  3
   1269   2634   2604   2605     1  0.0000000  1.6038667  3
   1269   2634   2604   2606     1  0.0000000  1.6038667  3
   1270   1269   2634   2604     1  0.0000000  1.6038667  3
   1271   1269   2634   2604     1  0.0000000  1.6038667  3
   1272   2665   2635   2636     1  0.0000000  1.6038667  3
   1272   2665   2635   2637     1  0.0000000  1.6038667  3
   1273   1272   2665   2635     1  0.0000000  1.6038667  3
   1274   1272   2665   2635     1  0.0000000  1.6038667  3
   1276   1277   1289   1290     1  0.0000000  0.6508444  3
   1276   1277   1289   1291     1  0.0000000  0.6508444  3
   1276   1280   1292   1293     1  0.0000000  0.6508444  3
   1276   1280   1292   1294     1  0.0000000  0.6508444  3
   1276   1283   1286   1287     1  0.0000000  0.6508444  3
   1276   1283   1286   1288     1  0.0000000  0.6508444  3
   1277   1276   1280   1281     1  0.0000000  1.2552000  3
   1277   1276   1280   1282     1  0.0000000  1.2552000  3
   1277   1276   1283   1284     1  0.0000000  1.2552000  3
   1277   1276   1283   1285     1  0.0000000  1.2552000  3
   1277   1289   1301   1302     1  0.0000000  0.6508444  3
   1277   1289   1301   1303     1  0.0000000  0.6508444  3
   1278   1277   1276   1280     1  0.0000000  1.2552000  3
   1278   1277   1276   1283     1  0.0000000  1.2552000  3
   1278   1277   1289   1301     1  0.0000000  0.6508444  3
   1278   1277   1289   1290     1  0.0000000  0.6508444  3
   1278   1277   1289   1291     1  0.0000000  0.6508444  3
   1279   1277   1276   1280     1  0.0000000  1.2552000  3
   1279   1277   1276   1283     1  0.0000000  1.2552000  3
   1279   1277   1289   1301     1  0.0000000  0.6508444  3
   1279   1277   1289   1290     1  0.0000000  0.6508444  3
   1279   1277   1289   1291     1  0.0000000  0.6508444  3
   1280   1276   1283   1284     1  0.0000000  1.2552000  3
   1280   1276   1283   1285     1  0.0000000  1.2552000  3
   1280   1292   1298   1299     1  0.0000000  0.6508444  3
   1280   1292   1298   1300     1  0.0000000  0.6508444  3
   1281   1280   1276   1283     1  0.0000000  1.2552000  3
   1281   1280   1292   1298     1  0.0000000  0.6508444  3
   1281   1280   1292   1293     1  0.0000000  0.6508444  3
   1281   1280   1292   1294     1  0.0000000  0.6508444  3
   1282   1280   1276   1283     1  0.0000000  1.2552000  3
   1282   1280   1292   1298     1  0.0000000  0.6508444  3
   1282   1280   1292   1293     1  0.0000000  0.6508444  3
   1282   1280   1292   1294     1  0.0000000  0.6508444  3
   1283   1286   1295   1296     1  0.0000000  0.6508444  3
   1283   1286   1295   1297     1  0.0000000  0.6508444  3
   1284   1283   1286   1295     1  0.0000000  0.6508444  3
   1284   1283   1286   1287     1  0.0000000  0.6508444  3
   1284   1283   1286   1288     1  0.0000000  0.6508444  3
   1285   1283   1286   1295     1  0.0000000  0.6508444  3
   1285   1283   1286   1287     1  0.0000000  0.6508444  3
   1285   1283   1286   1288     1  0.0000000  0.6508444  3
   1287   1286   1295   1304     1  0.0000000  1.0460000  1
   1287   1286   1295   1304     1  0.0000000  0.0000000  3
   1287   1286   1295   1296     1  0.0000000  0.6508444  3
   1287   1286   1295   1297     1  0.0000000  0.6508444  3
   1288   1286   1295   1304     1  0.0000000  1.0460000  1
   1288   1286   1295   1304     1  0.0000000  0.0000000  3
   1288   1286   1295   1296     1  0.0000000  0.6508444  3
   1288   1286   1295   1297     1  0.0000000  0.6508444  3
   1290   1289   1301   2727     1  0.0000000  1.0460000  1
   1290   1289   1301   2727     1  0.0000000  0.0000000  3
   1290   1289   1301   1302     1  0.0000000  0.6508444  3
   1290   1289   1301   1303     1  0.0000000  0.6508444  3
   1291   1289   1301   2727     1  0.0000000  1.0460000  1
   1291   1289   1301   2727     1  0.0000000  0.0000000  3
   1291   1289   1301   1302     1  0.0000000  0.6508444  3
   1291   1289   1301   1303     1  0.0000000  0.6508444  3
   1293   1292   1298   2696     1  0.0000000  1.0460000  1
   1293   1292   1298   2696     1  0.0000000  0.0000000  3
   1293   1292   1298   1299     1  0.0000000  0.6508444  3
   1293   1292   1298   1300     1  0.0000000  0.6508444  3
   1294   1292   1298   2696     1  0.0000000  1.0460000  1
   1294   1292   1298   2696     1  0.0000000  0.0000000  3
   1294   1292   1298   1299     1  0.0000000  0.6508444  3
   1294   1292   1298   1300     1  0.0000000  0.6508444  3
   1298   2696   2666   2667     1  0.0000000  1.6038667  3
   1298   2696   2666   2668     1  0.0000000  1.6038667  3
   1299   1298   2696   2666     1  0.0000000  1.6038667  3
   1300   1298   2696   2666     1  0.0000000  1.6038667  3
   1301   2727   2697   2698     1  0.0000000  1.6038667  3
   1301   2727   2697   2699     1  0.0000000  1.6038667  3
   1302   1301   2727   2697     1  0.0000000  1.6038667  3
   1303   1301   2727   2697     1  0.0000000  1.6038667  3
   1305   1306   1318   1319     1  0.0000000  0.6508444  3
   1305   1306   1318   1320     1  0.0000000  0.6508444  3
   1305   1309   1321   1322     1  0.0000000  0.6508444  3
   1305   1309   1321   1323     1  0.0000000  0.6508444  3
   1305   1312   1315   1316     1  0.0000000  0.6508444  3
   1305   1312   1315   1317     1  0.0000000  0.6508444  3
   1306   1305   1309   1310     1  0.0000000  1.2552000  3
   1306   1305   1309   1311     1  0.0000000  1.2552000  3
   1306   1305   1312   1313     1  0.0000000  1.2552000  3
   1306   1305   1312   1314     1  0.0000000  1.2552000  3
   1306   1318   1330   1331     1  0.0000000  0.6508444  3
   1306   1318   1330   1332     1  0.0000000  0.6508444  3
   1307   1306   1305   1309     1  0.0000000  1.2552000  3
   1307   1306   1305   1312     1  0.0000000  1.2552000  3
   1307   1306   1318   1330     1  0.0000000  0.6508444  3
   1307   1306   1318   1319     1  0.0000000  0.6508444  3
   1307   1306   1318   1320     1  0.0000000  0.6508444  3
   1308   1306   1305   1309     1  0.0000000  1.2552000  3
   1308   1306   1305   1312     1  0.0000000  1.2552000  3
   1308   1306   1318   1330     1  0.0000000  0.6508444  3
   1308   1306   1318   1319     1  0.0000000  0.6508444  3
   1308   1306   1318   1320     1  0.0000000  0.6508444  3
   1309   1305   1312   1313     1  0.0000000  1.2552000  3
   1309   1305   1312   1314     1  0.0000000  1.2552000  3
   1309   1321   1327   1328     1  0.0000000  0.6508444  3
   1309   1321   1327   1329     1  0.0000000  0.6508444  3
   1310   1309   1305   1312     1  0.0000000  1.2552000  3
   1310   1309   1321   1327     1  0.0000000  0.6508444  3
   1310   1309   1321   1322     1  0.0000000  0.6508444  3
   1310   1309   1321   1323     1  0.0000000  0.6508444  3
   1311   1309   1305   1312     1  0.0000000  1.2552000  3
   1311   1309   1321   1327     1  0.0000000  0.6508444  3
   1311   1309   1321   1322     1  0.0000000  0.6508444  3
   1311   1309   1321   1323     1  0.0000000  0.6508444  3
   1312   1315   1324   1325     1  0.0000000  0.6508444  3
   1312   1315   1324   1326     1  0.0000000  0.6508444  3
   1313   1312   1315   1324     1  0.0000000  0.6508444  3
   1313   1312   1315   1316     1  0.0000000  0.6508444  3
   1313   1312   1315   1317     1  0.0000000  0.6508444  3
   1314   1312   1315   1324     1  0.0000000  0.6508444  3
   1314   1312   1315   1316     1  0.0000000  0.6508444  3
   1314   1312   1315   1317     1  0.0000000  0.6508444  3
   1316   1315   1324   1333     1  0.0000000  1.0460000  1
   1316   1315   1324   1333     1  0.0000000  0.0000000  3
   1316   1315   1324   1325     1  0.0000000  0.6508444  3
   1316   1315   1324   1326     1  0.0000000  0.6508444  3
   1317   1315   1324   1333     1  0.0000000  1.0460000  1
   1317   1315   1324   1333     1  0.0000000  0.0000000  3
   1317   1315   1324   1325     1  0.0000000  0.6508444  3
   1317   1315   1324   1326     1  0.0000000  0.6508444  3
   1319   1318   1330   2789     1  0.0000000  1.0460000  1
   1319   1318   1330   2789     1  0.0000000  0.0000000  3
   1319   1318   1330   1331     1  0.0000000  0.6508444  3
   1319   1318   1330   1332     1  0.0000000  0.6508444  3
   1320   1318   1330   2789     1  0.0000000  1.0460000  1
   1320   1318   1330   2789     1  0.0000000  0.0000000  3
   1320   1318   1330   1331     1  0.0000000  0.6508444  3
   1320   1318   1330   1332     1  0.0000000  0.6508444  3
   1322   1321   1327   2758     1  0.0000000  1.0460000  1
   1322   1321   1327   2758     1  0.0000000  0.0000000  3
   1322   1321   1327   1328     1  0.0000000  0.6508444  3
   1322   1321   1327   1329     1  0.0000000  0.6508444  3
   1323   1321   1327   2758     1  0.0000000  1.0460000  1
   1323   1321   1327   2758     1  0.0000000  0.0000000  3
   1323   1321   1327   1328     1  0.0000000  0.6508444  3
   1323   1321   1327   1329     1  0.0000000  0.6508444  3
   1327   2758   2728   2729     1  0.0000000  1.6038667  3
   1327   2758   2728   2730     1  0.0000000  1.6038667  3
   1328   1327   2758   2728     1  0.0000000  1.6038667  3
   1329   1327   2758   2728     1  0.0000000  1.6038667  3
   1330   2789   2759   2760     1  0.0000000  1.6038667  3
   1330   2789   2759   2761     1  0.0000000  1.6038667  3
   1331   1330   2789   2759     1  0.0000000  1.6038667  3
   1332   1330   2789   2759     1  0.0000000  1.6038667  3
   1334   1335   1347   1348     1  0.0000000  0.6508444  3
   1334   1335   1347   1349     1  0.0000000  0.6508444  3
   1334   1338   1350   1351     1  0.0000000  0.6508444  3
   1334   1338   1350   1352     1  0.0000000  0.6508444  3
   1334   1341   1344   1345     1  0.0000000  0.6508444  3
   1334   1341   1344   1346     1  0.0000000  0.6508444  3
   1335   1334   1338   1339     1  0.0000000  1.2552000  3
   1335   1334   1338   1340     1  0.0000000  1.2552000  3
   1335   1334   1341   1342     1  0.0000000  1.2552000  3
   1335   1334   1341   1343     1  0.0000000  1.2552000  3
   1335   1347   1359   1360     1  0.0000000  0.6508444  3
   1335   1347   1359   1361     1  0.0000000  0.6508444  3
   1336   1335   1334   1338     1  0.0000000  1.2552000  3
   1336   1335   1334   1341     1  0.0000000  1.2552000  3
   1336   1335   1347   1359     1  0.0000000  0.6508444  3
   1336   1335   1347   1348     1  0.0000000  0.6508444  3
   1336   1335   1347   1349     1  0.0000000  0.6508444  3
   1337   1335   1334   1338     1  0.0000000  1.2552000  3
   1337   1335   1334   1341     1  0.0000000  1.2552000  3
   1337   1335   1347   1359     1  0.0000000  0.6508444  3
   1337   1335   1347   1348     1  0.0000000  0.6508444  3
   1337   1335   1347   1349     1  0.0000000  0.6508444  3
   1338   1334   1341   1342     1  0.0000000  1.2552000  3
   1338   1334   1341   1343     1  0.0000000  1.2552000  3
   1338   1350   1356   1357     1  0.0000000  0.6508444  3
   1338   1350   1356   1358     1  0.0000000  0.6508444  3
   1339   1338   1334   1341     1  0.0000000  1.2552000  3
   1339   1338   1350   1356     1  0.0000000  0.6508444  3
   1339   1338   1350   1351     1  0.0000000  0.6508444  3
   1339   1338   1350   1352     1  0.0000000  0.6508444  3
   1340   1338   1334   1341     1  0.0000000  1.2552000  3
   1340   1338   1350   1356     1  0.0000000  0.6508444  3
   1340   1338   1350   1351     1  0.0000000  0.6508444  3
   1340   1338   1350   1352     1  0.0000000  0.6508444  3
   1341   1344   1353   1354     1  0.0000000  0.6508444  3
   1341   1344   1353   1355     1  0.0000000  0.6508444  3
   1342   1341   1344   1353     1  0.0000000  0.6508444  3
   1342   1341   1344   1345     1  0.0000000  0.6508444  3
   1342   1341   1344   1346     1  0.0000000  0.6508444  3
   1343   1341   1344   1353     1  0.0000000  0.6508444  3
   1343   1341   1344   1345     1  0.0000000  0.6508444  3
   1343   1341   1344   1346     1  0.0000000  0.6508444  3
   1345   1344   1353   1362     1  0.0000000  1.0460000  1
   1345   1344   1353   1362     1  0.0000000  0.0000000  3
   1345   1344   1353   1354     1  0.0000000  0.6508444  3
   1345   1344   1353   1355     1  0.0000000  0.6508444  3
   1346   1344   1353   1362     1  0.0000000  1.0460000  1
   1346   1344   1353   1362     1  0.0000000  0.0000000  3
   1346   1344   1353   1354     1  0.0000000  0.6508444  3
   1346   1344   1353   1355     1  0.0000000  0.6508444  3
   1348   1347   1359   2851     1  0.0000000  1.0460000  1
   1348   1347   1359   2851     1  0.0000000  0.0000000  3
   1348   1347   1359   1360     1  0.0000000  0.6508444  3
   1348   1347   1359   1361     1  0.0000000  0.6508444  3
   1349   1347   1359   2851     1  0.0000000  1.0460000  1
   1349   1347   1359   2851     1  0.0000000  0.0000000  3
   1349   1347   1359   1360     1  0.0000000  0.6508444  3
   1349   1347   1359   1361     1  0.0000000  0.6508444  3
   1351   1350   1356   2820     1  0.0000000  1.0460000  1
   1351   1350   1356   2820     1  0.0000000  0.0000000  3
   1351   1350   1356   1357     1  0.0000000  0.6508444  3
   1351   1350   1356   1358     1  0.0000000  0.6508444  3
   1352   1350   1356   2820     1  0.0000000  1.0460000  1
   1352   1350   1356   2820     1  0.0000000  0.0000000  3
   1352   1350   1356   1357     1  0.0000000  0.6508444  3
   1352   1350   1356   1358     1  0.0000000  0.6508444  3
   1356   2820   2790   2791     1  0.0000000  1.6038667  3
   1356   2820   2790   2792     1  0.0000000  1.6038667  3
   1357   1356   2820   2790     1  0.0000000  1.6038667  3
   1358   1356   2820   2790     1  0.0000000  1.6038667  3
   1359   2851   2821   2822     1  0.0000000  1.6038667  3
   1359   2851   2821   2823     1  0.0000000  1.6038667  3
   1360   1359   2851   2821     1  0.0000000  1.6038667  3
   1361   1359   2851   2821     1  0.0000000  1.6038667  3
   1363   1364   1376   1377     1  0.0000000  0.6508444  3
   1363   1364   1376   1378     1  0.0000000  0.6508444  3
   1363   1367   1379   1380     1  0.0000000  0.6508444  3
   1363   1367   1379   1381     1  0.0000000  0.6508444  3
   1363   1370   1373   1374     1  0.0000000  0.6508444  3
   1363   1370   1373   1375     1  0.0000000  0.6508444  3
   1364   1363   1367   1368     1  0.0000000  1.2552000  3
   1364   1363   1367   1369     1  0.0000000  1.2552000  3
   1364   1363   1370   1371     1  0.0000000  1.2552000  3
   1364   1363   1370   1372     1  0.0000000  1.2552000  3
   1364   1376   1388   1389     1  0.0000000  0.6508444  3
   1364   1376   1388   1390     1  0.0000000  0.6508444  3
   1365   1364   1363   1367     1  0.0000000  1.2552000  3
   1365   1364   1363   1370     1  0.0000000  1.2552000  3
   1365   1364   1376   1388     1  0.0000000  0.6508444  3
   1365   1364   1376   1377     1  0.0000000  0.6508444  3
   1365   1364   1376   1378     1  0.0000000  0.6508444  3
   1366   1364   1363   1367     1  0.0000000  1.2552000  3
   1366   1364   1363   1370     1  0.0000000  1.2552000  3
   1366   1364   1376   1388     1  0.0000000  0.6508444  3
   1366   1364   1376   1377     1  0.0000000  0.6508444  3
   1366   1364   1376   1378     1  0.0000000  0.6508444  3
   1367   1363   1370   1371     1  0.0000000  1.2552000  3
   1367   1363   1370   1372     1  0.0000000  1.2552000  3
   1367   1379   1385   1386     1  0.0000000  0.6508444  3
   1367   1379   1385   1387     1  0.0000000  0.6508444  3
   1368   1367   1363   1370     1  0.0000000  1.2552000  3
   1368   1367   1379   1385     1  0.0000000  0.6508444  3
   1368   1367   1379   1380     1  0.0000000  0.6508444  3
   1368   1367   1379   1381     1  0.0000000  0.6508444  3
   1369   1367   1363   1370     1  0.0000000  1.2552000  3
   1369   1367   1379   1385     1  0.0000000  0.6508444  3
   1369   1367   1379   1380     1  0.0000000  0.6508444  3
   1369   1367   1379   1381     1  0.0000000  0.6508444  3
   1370   1373   1382   1383     1  0.0000000  0.6508444  3
   1370   1373   1382   1384     1  0.0000000  0.6508444  3
   1371   1370   1373   1382     1  0.0000000  0.6508444  3
   1371   1370   1373   1374     1  0.0000000  0.6508444  3
   1371   1370   1373   1375     1  0.0000000  0.6508444  3
   1372   1370   1373   1382     1  0.0000000  0.6508444  3
   1372   1370   1373   1374     1  0.0000000  0.6508444  3
   1372   1370   1373   1375     1  0.0000000  0.6508444  3
   1374   1373   1382   1391     1  0.0000000  1.0460000  1
   1374   1373   1382   1391     1  0.0000000  0.0000000  3
   1374   1373   1382   1383     1  0.0000000  0.6508444  3
   1374   1373   1382   1384     1  0.0000000  0.6508444  3
   1375   1373   1382   1391     1  0.0000000  1.0460000  1
   1375   1373   1382   1391     1  0.0000000  0.0000000  3
   1375   1373   1382   1383     1  0.0000000  0.6508444  3
   1375   1373   1382   1384     1  0.0000000  0.6508444  3
   1377   1376   1388   2913     1  0.0000000  1.0460000  1
   1377   1376   1388   2913     1  0.0000000  0.0000000  3
   1377   1376   1388   1389     1  0.0000000  0.6508444  3
   1377   1376   1388   1390     1  0.0000000  0.6508444  3
   1378   1376   1388   2913     1  0.0000000  1.0460000  1
   1378   1376   1388   2913     1  0.0000000  0.0000000  3
   1378   1376   1388   1389     1  0.0000000  0.6508444  3
   1378   1376   1388   1390     1  0.0000000  0.6508444  3
   1380   1379   1385   2882     1  0.0000000  1.0460000  1
   1380   1379   1385   2882     1  0.0000000  0.0000000  3
   1380   1379   1385   1386     1  0.0000000  0.6508444  3
   1380   1379   1385   1387     1  0.0000000  0.6508444  3
   1381   1379   1385   2882     1  0.0000000  1.0460000  1
   1381   1379   1385   2882     1  0.0000000  0.0000000  3
   1381   1379   1385   1386     1  0.0000000  0.6508444  3
   1381   1379   1385   1387     1  0.0000000  0.6508444  3
   1385   2882   2852   2853     1  0.0000000  1.6038667  3
   1385   2882   2852   2854     1  0.0000000  1.6038667  3
   1386   1385   2882   2852     1  0.0000000  1.6038667  3
   1387   1385   2882   2852     1  0.0000000  1.6038667  3
   1388   2913   2883   2884     1  0.0000000  1.6038667  3
   1388   2913   2883   2885     1  0.0000000  1.6038667  3
   1389   1388   2913   2883     1  0.0000000  1.6038667  3
   1390   1388   2913   2883     1  0.0000000  1.6038667  3
   1392   1393   1405   1406     1  0.0000000  0.6508444  3
   1392   1393   1405   1407     1  0.0000000  0.6508444  3
   1392   1396   1408   1409     1  0.0000000  0.6508444  3
   1392   1396   1408   1410     1  0.0000000  0.6508444  3
   1392   1399   1402   1403     1  0.0000000  0.6508444  3
   1392   1399   1402   1404     1  0.0000000  0.6508444  3
   1393   1392   1396   1397     1  0.0000000  1.2552000  3
   1393   1392   1396   1398     1  0.0000000  1.2552000  3
   1393   1392   1399   1400     1  0.0000000  1.2552000  3
   1393   1392   1399   1401     1  0.0000000  1.2552000  3
   1393   1405   1417   1418     1  0.0000000  0.6508444  3
   1393   1405   1417   1419     1  0.0000000  0.6508444  3
   1394   1393   1392   1396     1  0.0000000  1.2552000  3
   1394   1393   1392   1399     1  0.0000000  1.2552000  3
   1394   1393   1405   1417     1  0.0000000  0.6508444  3
   1394   1393   1405   1406     1  0.0000000  0.6508444  3
   1394   1393   1405   1407     1  0.0000000  0.6508444  3
   1395   1393   1392   1396     1  0.0000000  1.2552000  3
   1395   1393   1392   1399     1  0.0000000  1.2552000  3
   1395   1393   1405   1417     1  0.0000000  0.6508444  3
   1395   1393   1405   1406     1  0.0000000  0.6508444  3
   1395   1393   1405   1407     1  0.0000000  0.6508444  3
   1396   1392   1399   1400     1  0.0000000  1.2552000  3
   1396   1392   1399   1401     1  0.0000000  1.2552000  3
   1396   1408   1414   1415     1  0.0000000  0.6508444  3
   1396   1408   1414   1416     1  0.0000000  0.6508444  3
   1397   1396   1392   1399     1  0.0000000  1.2552000  3
   1397   1396   1408   1414     1  0.0000000  0.6508444  3
   1397   1396   1408   1409     1  0.0000000  0.6508444  3
   1397   1396   1408   1410     1  0.0000000  0.6508444  3
   1398   1396   1392   1399     1  0.0000000  1.2552000  3
   1398   1396   1408   1414     1  0.0000000  0.6508444  3
   1398   1396   1408   1409     1  0.0000000  0.6508444  3
   1398   1396   1408   1410     1  0.0000000  0.6508444  3
   1399   1402   1411   1412     1  0.0000000  0.6508444  3
   1399   1402   1411   1413     1  0.0000000  0.6508444  3
   1400   1399   1402   1411     1  0.0000000  0.6508444  3
   1400   1399   1402   1403     1  0.0000000  0.6508444  3
   1400   1399   1402   1404     1  0.0000000  0.6508444  3
   1401   1399   1402   1411     1  0.0000000  0.6508444  3
   1401   1399   1402   1403     1  0.0000000  0.6508444  3
   1401   1399   1402   1404     1  0.0000000  0.6508444  3
   1403   1402   1411   1420     1  0.0000000  1.0460000  1
   1403   1402   1411   1420     1  0.0000000  0.0000000  3
   1403   1402   1411   1412     1  0.0000000  0.6508444  3
   1403   1402   1411   1413     1  0.0000000  0.6508444  3
   1404   1402   1411   1420     1  0.0000000  1.0460000  1
   1404   1402   1411   1420     1  0.0000000  0.0000000  3
   1404   1402   1411   1412     1  0.0000000  0.6508444  3
   1404   1402   1411   1413     1  0.0000000  0.6508444  3
   1406   1405   1417   2975     1  0.0000000  1.0460000  1
   1406   1405   1417   2975     1  0.0000000  0.0000000  3
   1406   1405   1417   1418     1  0.0000000  0.6508444  3
   1406   1405   1417   1419     1  0.0000000  0.6508444  3
   1407   1405   1417   2975     1  0.0000000  1.0460000  1
   1407   1405   1417   2975     1  0.0000000  0.0000000  3
   1407   1405   1417   1418     1  0.0000000  0.6508444  3
   1407   1405   1417   1419     1  0.0000000  0.6508444  3
   1409   1408   1414   2944     1  0.0000000  1.0460000  1
   1409   1408   1414   2944     1  0.0000000  0.0000000  3
   1409   1408   1414   1415     1  0.0000000  0.6508444  3
   1409   1408   1414   1416     1  0.0000000  0.6508444  3
   1410   1408   1414   2944     1  0.0000000  1.0460000  1
   1410   1408   1414   2944     1  0.0000000  0.0000000  3
   1410   1408   1414   1415     1  0.0000000  0.6508444  3
   1410   1408   1414   1416     1  0.0000000  0.6508444  3
   1414   2944   2914   2915     1  0.0000000  1.6038667  3
   1414   2944   2914   2916     1  0.0000000  1.6038667  3
   1415   1414   2944   2914     1  0.0000000  1.6038667  3
   1416   1414   2944   2914     1  0.0000000  1.6038667  3
   1417   2975   2945   2946     1  0.0000000  1.6038667  3
   1417   2975   2945   2947     1  0.0000000  1.6038667  3
   1418   1417   2975   2945     1  0.0000000  1.6038667  3
   1419   1417   2975   2945     1  0.0000000  1.6038667  3
   1421   1422   1434   1435     1  0.0000000  0.6508444  3
   1421   1422   1434   1436     1  0.0000000  0.6508444  3
   1421   1425   1437   1438     1  0.0000000  0.6508444  3
   1421   1425   1437   1439     1  0.0000000  0.6508444  3
   1421   1428   1431   1432     1  0.0000000  0.6508444  3
   1421   1428   1431   1433     1  0.0000000  0.6508444  3
   1422   1421   1425   1426     1  0.0000000  1.2552000  3
   1422   1421   1425   1427     1  0.0000000  1.2552000  3
   1422   1421   1428   1429     1  0.0000000  1.2552000  3
   1422   1421   1428   1430     1  0.0000000  1.2552000  3
   1422   1434   1446   1447     1  0.0000000  0.6508444  3
   1422   1434   1446   1448     1  0.0000000  0.6508444  3
   1423   1422   1421   1425     1  0.0000000  1.2552000  3
   1423   1422   1421   1428     1  0.0000000  1.2552000  3
   1423   1422   1434   1446     1  0.0000000  0.6508444  3
   1423   1422   1434   1435     1  0.0000000  0.6508444  3
   1423   1422   1434   1436     1  0.0000000  0.6508444  3
   1424   1422   1421   1425     1  0.0000000  1.2552000  3
   1424   1422   1421   1428     1  0.0000000  1.2552000  3
   1424   1422   1434   1446     1  0.0000000  0.6508444  3
   1424   1422   1434   1435     1  0.0000000  0.6508444  3
   1424   1422   1434   1436     1  0.0000000  0.6508444  3
   1425   1421   1428   1429     1  0.0000000  1.2552000  3
   1425   1421   1428   1430     1  0.0000000  1.2552000  3
   1425   1437   1443   1444     1  0.0000000  0.6508444  3
   1425   1437   1443   1445     1  0.0000000  0.6508444  3
   1426   1425   1421   1428     1  0.0000000  1.2552000  3
   1426   1425   1437   1443     1  0.0000000  0.6508444  3
   1426   1425   1437   1438     1  0.0000000  0.6508444  3
   1426   1425   1437   1439     1  0.0000000  0.6508444  3
   1427   1425   1421   1428     1  0.0000000  1.2552000  3
   1427   1425   1437   1443     1  0.0000000  0.6508444  3
   1427   1425   1437   1438     1  0.0000000  0.6508444  3
   1427   1425   1437   1439     1  0.0000000  0.6508444  3
   1428   1431   1440   1441     1  0.0000000  0.6508444  3
   1428   1431   1440   1442     1  0.0000000  0.6508444  3
   1429   1428   1431   1440     1  0.0000000  0.6508444  3
   1429   1428   1431   1432     1  0.0000000  0.6508444  3
   1429   1428   1431   1433     1  0.0000000  0.6508444  3
   1430   1428   1431   1440     1  0.0000000  0.6508444  3
   1430   1428   1431   1432     1  0.0000000  0.6508444  3
   1430   1428   1431   1433     1  0.0000000  0.6508444  3
   1432   1431   1440   1449     1  0.0000000  1.0460000  1
   1432   1431   1440   1449     1  0.0000000  0.0000000  3
   1432   1431   1440   1441     1  0.0000000  0.6508444  3
   1432   1431   1440   1442     1  0.0000000  0.6508444  3
   1433   1431   1440   1449     1  0.0000000  1.0460000  1
   1433   1431   1440   1449     1  0.0000000  0.0000000  3
   1433   1431   1440   1441     1  0.0000000  0.6508444  3
   1433   1431   1440   1442     1  0.0000000  0.6508444  3
   1435   1434   1446   3037     1  0.0000000  1.0460000  1
   1435   1434   1446   3037     1  0.0000000  0.0000000  3
   1435   1434   1446   1447     1  0.0000000  0.6508444  3
   1435   1434   1446   1448     1  0.0000000  0.6508444  3
   1436   1434   1446   3037     1  0.0000000  1.0460000  1
   1436   1434   1446   3037     1  0.0000000  0.0000000  3
   1436   1434   1446   1447     1  0.0000000  0.6508444  3
   1436   1434   1446   1448     1  0.0000000  0.6508444  3
   1438   1437   1443   3006     1  0.0000000  1.0460000  1
   1438   1437   1443   3006     1  0.0000000  0.0000000  3
   1438   1437   1443   1444     1  0.0000000  0.6508444  3
   1438   1437   1443   1445     1  0.0000000  0.6508444  3
   1439   1437   1443   3006     1  0.0000000  1.0460000  1
   1439   1437   1443   3006     1  0.0000000  0.0000000  3
   1439   1437   1443   1444     1  0.0000000  0.6508444  3
   1439   1437   1443   1445     1  0.0000000  0.6508444  3
   1443   3006   2976   2977     1  0.0000000  1.6038667  3
   1443   3006   2976   2978     1  0.0000000  1.6038667  3
   1444   1443   3006   2976     1  0.0000000  1.6038667  3
   1445   1443   3006   2976     1  0.0000000  1.6038667  3
   1446   3037   3007   3008     1  0.0000000  1.6038667  3
   1446   3037   3007   3009     1  0.0000000  1.6038667  3
   1447   1446   3037   3007     1  0.0000000  1.6038667  3
   1448   1446   3037   3007     1  0.0000000  1.6038667  3
   1450   1451   1463   1464     1  0.0000000  0.6508444  3
   1450   1451   1463   1465     1  0.0000000  0.6508444  3
   1450   1454   1466   1467     1  0.0000000  0.6508444  3
   1450   1454   1466   1468     1  0.0000000  0.6508444  3
   1450   1457   1460   1461     1  0.0000000  0.6508444  3
   1450   1457   1460   1462     1  0.0000000  0.6508444  3
   1451   1450   1454   1455     1  0.0000000  1.2552000  3
   1451   1450   1454   1456     1  0.0000000  1.2552000  3
   1451   1450   1457   1458     1  0.0000000  1.2552000  3
   1451   1450   1457   1459     1  0.0000000  1.2552000  3
   1451   1463   1475   1476     1  0.0000000  0.6508444  3
   1451   1463   1475   1477     1  0.0000000  0.6508444  3
   1452   1451   1450   1454     1  0.0000000  1.2552000  3
   1452   1451   1450   1457     1  0.0000000  1.2552000  3
   1452   1451   1463   1475     1  0.0000000  0.6508444  3
   1452   1451   1463   1464     1  0.0000000  0.6508444  3
   1452   1451   1463   1465     1  0.0000000  0.6508444  3
   1453   1451   1450   1454     1  0.0000000  1.2552000  3
   1453   1451   1450   1457     1  0.0000000  1.2552000  3
   1453   1451   1463   1475     1  0.0000000  0.6508444  3
   1453   1451   1463   1464     1  0.0000000  0.6508444  3
   1453   1451   1463   1465     1  0.0000000  0.6508444  3
   1454   1450   1457   1458     1  0.0000000  1.2552000  3
   1454   1450   1457   1459     1  0.0000000  1.2552000  3
   1454   1466   1472   1473     1  0.0000000  0.6508444  3
   1454   1466   1472   1474     1  0.0000000  0.6508444  3
   1455   1454   1450   1457     1  0.0000000  1.2552000  3
   1455   1454   1466   1472     1  0.0000000  0.6508444  3
   1455   1454   1466   1467     1  0.0000000  0.6508444  3
   1455   1454   1466   1468     1  0.0000000  0.6508444  3
   1456   1454   1450   1457     1  0.0000000  1.2552000  3
   1456   1454   1466   1472     1  0.0000000  0.6508444  3
   1456   1454   1466   1467     1  0.0000000  0.6508444  3
   1456   1454   1466   1468     1  0.0000000  0.6508444  3
   1457   1460   1469   1470     1  0.0000000  0.6508444  3
   1457   1460   1469   1471     1  0.0000000  0.6508444  3
   1458   1457   1460   1469     1  0.0000000  0.6508444  3
   1458   1457   1460   1461     1  0.0000000  0.6508444  3
   1458   1457   1460   1462     1  0.0000000  0.6508444  3
   1459   1457   1460   1469     1  0.0000000  0.6508444  3
   1459   1457   1460   1461     1  0.0000000  0.6508444  3
   1459   1457   1460   1462     1  0.0000000  0.6508444  3
   1461   1460   1469   1478     1  0.0000000  1.0460000  1
   1461   1460   1469   1478     1  0.0000000  0.0000000  3
   1461   1460   1469   1470     1  0.0000000  0.6508444  3
   1461   1460   1469   1471     1  0.0000000  0.6508444  3
   1462   1460   1469   1478     1  0.0000000  1.0460000  1
   1462   1460   1469   1478     1  0.0000000  0.0000000  3
   1462   1460   1469   1470     1  0.0000000  0.6508444  3
   1462   1460   1469   1471     1  0.0000000  0.6508444  3
   1464   1463   1475   3099     1  0.0000000  1.0460000  1
   1464   1463   1475   3099     1  0.0000000  0.0000000  3
   1464   1463   1475   1476     1  0.0000000  0.6508444  3
   1464   1463   1475   1477     1  0.0000000  0.6508444  3
   1465   1463   1475   3099     1  0.0000000  1.0460000  1
   1465   1463   1475   3099     1  0.0000000  0.0000000  3
   1465   1463   1475   1476     1  0.0000000  0.6508444  3
   1465   1463   1475   1477     1  0.0000000  0.6508444  3
   1467   1466   1472   3068     1  0.0000000  1.0460000  1
   1467   1466   1472   3068     1  0.0000000  0.0000000  3
   1467   1466   1472   1473     1  0.0000000  0.6508444  3
   1467   1466   1472   1474     1  0.0000000  0.6508444  3
   1468   1466   1472   3068     1  0.0000000  1.0460000  1
   1468   1466   1472   3068     1  0.0000000  0.0000000  3
   1468   1466   1472   1473     1  0.0000000  0.6508444  3
   1468   1466   1472   1474     1  0.0000000  0.6508444  3
   1472   3068   3038   3039     1  0.0000000  1.6038667  3
   1472   3068   3038   3040     1  0.0000000  1.6038667  3
   1473   1472   3068   3038     1  0.0000000  1.6038667  3
   1474   1472   3068   3038     1  0.0000000  1.6038667  3
   1475   3099   3069   3070     1  0.0000000  1.6038667  3
   1475   3099   3069   3071     1  0.0000000  1.6038667  3
   1476   1475   3099   3069     1  0.0000000  1.6038667  3
   1477   1475   3099   3069     1  0.0000000  1.6038667  3
   1479   1480   1492   1493     1  0.0000000  0.6508444  3
   1479   1480   1492   1494     1  0.0000000  0.6508444  3
   1479   1483   1495   1496     1  0.0000000  0.6508444  3
   1479   1483   1495   1497     1  0.0000000  0.6508444  3
   1479   1486   1489   1490     1  0.0000000  0.6508444  3
   1479   1486   1489   1491     1  0.0000000  0.6508444  3
   1480   1479   1483   1484     1  0.0000000  1.2552000  3
   1480   1479   1483   1485     1  0.0000000  1.2552000  3
   1480   1479   1486   1487     1  0.0000000  1.2552000  3
   1480   1479   1486   1488     1  0.0000000  1.2552000  3
   1480   1492   1504   1505     1  0.0000000  0.6508444  3
   1480   1492   1504   1506     1  0.0000000  0.6508444  3
   1481   1480   1479   1483     1  0.0000000  1.2552000  3
   1481   1480   1479   1486     1  0.0000000  1.2552000  3
   1481   1480   1492   1504     1  0.0000000  0.6508444  3
   1481   1480   1492   1493     1  0.0000000  0.6508444  3
   1481   1480   1492   1494     1  0.0000000  0.6508444  3
   1482   1480   1479   1483     1  0.0000000  1.2552000  3
   1482   1480   1479   1486     1  0.0000000  1.2552000  3
   1482   1480   1492   1504     1  0.0000000  0.6508444  3
   1482   1480   1492   1493     1  0.0000000  0.6508444  3
   1482   1480   1492   1494     1  0.0000000  0.6508444  3
   1483   1479   1486   1487     1  0.0000000  1.2552000  3
   1483   1479   1486   1488     1  0.0000000  1.2552000  3
   1483   1495   1501   1502     1  0.0000000  0.6508444  3
   1483   1495   1501   1503     1  0.0000000  0.6508444  3
   1484   1483   1479   1486     1  0.0000000  1.2552000  3
   1484   1483   1495   1501     1  0.0000000  0.6508444  3
   1484   1483   1495   1496     1  0.0000000  0.6508444  3
   1484   1483   1495   1497     1  0.0000000  0.6508444  3
   1485   1483   1479   1486     1  0.0000000  1.2552000  3
   1485   1483   1495   1501     1  0.0000000  0.6508444  3
   1485   1483   1495   1496     1  0.0000000  0.6508444  3
   1485   1483   1495   1497     1  0.0000000  0.6508444  3
   1486   1489   1498   1499     1  0.0000000  0.6508444  3
   1486   1489   1498   1500     1  0.0000000  0.6508444  3
   1487   1486   1489   1498     1  0.0000000  0.6508444  3
   1487   1486   1489   1490     1  0.0000000  0.6508444  3
   1487   1486   1489   1491     1  0.0000000  0.6508444  3
   1488   1486   1489   1498     1  0.0000000  0.6508444  3
   1488   1486   1489   1490     1  0.0000000  0.6508444  3
   1488   1486   1489   1491     1  0.0000000  0.6508444  3
   1490   1489   1498   1507     1  0.0000000  1.0460000  1
   1490   1489   1498   1507     1  0.0000000  0.0000000  3
   1490   1489   1498   1499     1  0.0000000  0.6508444  3
   1490   1489   1498   1500     1  0.0000000  0.6508444  3
   1491   1489   1498   1507     1  0.0000000  1.0460000  1
   1491   1489   1498   1507     1  0.0000000  0.0000000  3
   1491   1489   1498   1499     1  0.0000000  0.6508444  3
   1491   1489   1498   1500     1  0.0000000  0.6508444  3
   1493   1492   1504   3161     1  0.0000000  1.0460000  1
   1493   1492   1504   3161     1  0.0000000  0.0000000  3
   1493   1492   1504   1505     1  0.0000000  0.6508444  3
   1493   1492   1504   1506     1  0.0000000  0.6508444  3
   1494   1492   1504   3161     1  0.0000000  1.0460000  1
   1494   1492   1504   3161     1  0.0000000  0.0000000  3
   1494   1492   1504   1505     1  0.0000000  0.6508444  3
   1494   1492   1504   1506     1  0.0000000  0.6508444  3
   1496   1495   1501   3130     1  0.0000000  1.0460000  1
   1496   1495   1501   3130     1  0.0000000  0.0000000  3
   1496   1495   1501   1502     1  0.0000000  0.6508444  3
   1496   1495   1501   1503     1  0.0000000  0.6508444  3
   1497   1495   1501   3130     1  0.0000000  1.0460000  1
   1497   1495   1501   3130     1  0.0000000  0.0000000  3
   1497   1495   1501   1502     1  0.0000000  0.6508444  3
   1497   1495   1501   1503     1  0.0000000  0.6508444  3
   1501   3130   3100   3101     1  0.0000000  1.6038667  3
   1501   3130   3100   3102     1  0.0000000  1.6038667  3
   1502   1501   3130   3100     1  0.0000000  1.6038667  3
   1503   1501   3130   3100     1  0.0000000  1.6038667  3
   1504   3161   3131   3132     1  0.0000000  1.6038667  3
   1504   3161   3131   3133     1  0.0000000  1.6038667  3
   1505   1504   3161   3131     1  0.0000000  1.6038667  3
   1506   1504   3161   3131     1  0.0000000  1.6038667  3
   1508   1509   1521   1522     1  0.0000000  0.6508444  3
   1508   1509   1521   1523     1  0.0000000  0.6508444  3
   1508   1512   1524   1525     1  0.0000000  0.6508444  3
   1508   1512   1524   1526     1  0.0000000  0.6508444  3
   1508   1515   1518   1519     1  0.0000000  0.6508444  3
   1508   1515   1518   1520     1  0.0000000  0.6508444  3
   1509   1508   1512   1513     1  0.0000000  1.2552000  3
   1509   1508   1512   1514     1  0.0000000  1.2552000  3
   1509   1508   1515   1516     1  0.0000000  1.2552000  3
   1509   1508   1515   1517     1  0.0000000  1.2552000  3
   1509   1521   1533   1534     1  0.0000000  0.6508444  3
   1509   1521   1533   1535     1  0.0000000  0.6508444  3
   1510   1509   1508   1512     1  0.0000000  1.2552000  3
   1510   1509   1508   1515     1  0.0000000  1.2552000  3
   1510   1509   1521   1533     1  0.0000000  0.6508444  3
   1510   1509   1521   1522     1  0.0000000  0.6508444  3
   1510   1509   1521   1523     1  0.0000000  0.6508444  3
   1511   1509   1508   1512     1  0.0000000  1.2552000  3
   1511   1509   1508   1515     1  0.0000000  1.2552000  3
   1511   1509   1521   1533     1  0.0000000  0.6508444  3
   1511   1509   1521   1522     1  0.0000000  0.6508444  3
   1511   1509   1521   1523     1  0.0000000  0.6508444  3
   1512   1508   1515   1516     1  0.0000000  1.2552000  3
   1512   1508   1515   1517     1  0.0000000  1.2552000  3
   1512   1524   1530   1531     1  0.0000000  0.6508444  3
   1512   1524   1530   1532     1  0.0000000  0.6508444  3
   1513   1512   1508   1515     1  0.0000000  1.2552000  3
   1513   1512   1524   1530     1  0.0000000  0.6508444  3
   1513   1512   1524   1525     1  0.0000000  0.6508444  3
   1513   1512   1524   1526     1  0.0000000  0.6508444  3
   1514   1512   1508   1515     1  0.0000000  1.2552000  3
   1514   1512   1524   1530     1  0.0000000  0.6508444  3
   1514   1512   1524   1525     1  0.0000000  0.6508444  3
   1514   1512   1524   1526     1  0.0000000  0.6508444  3
   1515   1518   1527   1528     1  0.0000000  0.6508444  3
   1515   1518   1527   1529     1  0.0000000  0.6508444  3
   1516   1515   1518   1527     1  0.0000000  0.6508444  3
   1516   1515   1518   1519     1  0.0000000  0.6508444  3
   1516   1515   1518   1520     1  0.0000000  0.6508444  3
   1517   1515   1518   1527     1  0.0000000  0.6508444  3
   1517   1515   1518   1519     1  0.0000000  0.6508444  3
   1517   1515   1518   1520     1  0.0000000  0.6508444  3
   1519   1518   1527   1536     1  0.0000000  1.0460000  1
   1519   1518   1527   1536     1  0.0000000  0.0000000  3
   1519   1518   1527   1528     1  0.0000000  0.6508444  3
   1519   1518   1527   1529     1  0.0000000  0.6508444  3
   1520   1518   1527   1536     1  0.0000000  1.0460000  1
   1520   1518   1527   1536     1  0.0000000  0.0000000  3
   1520   1518   1527   1528     1  0.0000000  0.6508444  3
   1520   1518   1527   1529     1  0.0000000  0.6508444  3
   1522   1521   1533   3223     1  0.0000000  1.0460000  1
   1522   1521   1533   3223     1  0.0000000  0.0000000  3
   1522   1521   1533   1534     1  0.0000000  0.6508444  3
   1522   1521   1533   1535     1  0.0000000  0.6508444  3
   1523   1521   1533   3223     1  0.0000000  1.0460000  1
   1523   1521   1533   3223     1  0.0000000  0.0000000  3
   1523   1521   1533   1534     1  0.0000000  0.6508444  3
   1523   1521   1533   1535     1  0.0000000  0.6508444  3
   1525   1524   1530   3192     1  0.0000000  1.0460000  1
   1525   1524   1530   3192     1  0.0000000  0.0000000  3
   1525   1524   1530   1531     1  0.0000000  0.6508444  3
   1525   1524   1530   1532     1  0.0000000  0.6508444  3
   1526   1524   1530   3192     1  0.0000000  1.0460000  1
   1526   1524   1530   3192     1  0.0000000  0.0000000  3
   1526   1524   1530   1531     1  0.0000000  0.6508444  3
   1526   1524   1530   1532     1  0.0000000  0.6508444  3
   1530   3192   3162   3163     1  0.0000000  1.6038667  3
   1530   3192   3162   3164     1  0.0000000  1.6038667  3
   1531   1530   3192   3162     1  0.0000000  1.6038667  3
   1532   1530   3192   3162     1  0.0000000  1.6038667  3
   1533   3223   3193   3194     1  0.0000000  1.6038667  3
   1533   3223   3193   3195     1  0.0000000  1.6038667  3
   1534   1533   3223   3193     1  0.0000000  1.6038667  3
   1535   1533   3223   3193     1  0.0000000  1.6038667  3
   1537   1538   1550   1551     1  0.0000000  0.6508444  3
   1537   1538   1550   1552     1  0.0000000  0.6508444  3
   1537   1541   1553   1554     1  0.0000000  0.6508444  3
   1537   1541   1553   1555     1  0.0000000  0.6508444  3
   1537   1544   1547   1548     1  0.0000000  0.6508444  3
   1537   1544   1547   1549     1  0.0000000  0.6508444  3
   1538   1537   1541   1542     1  0.0000000  1.2552000  3
   1538   1537   1541   1543     1  0.0000000  1.2552000  3
   1538   1537   1544   1545     1  0.0000000  1.2552000  3
   1538   1537   1544   1546     1  0.0000000  1.2552000  3
   1538   1550   1562   1563     1  0.0000000  0.6508444  3
   1538   1550   1562   1564     1  0.0000000  0.6508444  3
   1539   1538   1537   1541     1  0.0000000  1.2552000  3
   1539   1538   1537   1544     1  0.0000000  1.2552000  3
   1539   1538   1550   1562     1  0.0000000  0.6508444  3
   1539   1538   1550   1551     1  0.0000000  0.6508444  3
   1539   1538   1550   1552     1  0.0000000  0.6508444  3
   1540   1538   1537   1541     1  0.0000000  1.2552000  3
   1540   1538   1537   1544     1  0.0000000  1.2552000  3
   1540   1538   1550   1562     1  0.0000000  0.6508444  3
   1540   1538   1550   1551     1  0.0000000  0.6508444  3
   1540   1538   1550   1552     1  0.0000000  0.6508444  3
   1541   1537   1544   1545     1  0.0000000  1.2552000  3
   1541   1537   1544   1546     1  0.0000000  1.2552000  3
   1541   1553   1559   1560     1  0.0000000  0.6508444  3
   1541   1553   1559   1561     1  0.0000000  0.6508444  3
   1542   1541   1537   1544     1  0.0000000  1.2552000  3
   1542   1541   1553   1559     1  0.0000000  0.6508444  3
   1542   1541   1553   1554     1  0.0000000  0.6508444  3
   1542   1541   1553   1555     1  0.0000000  0.6508444  3
   1543   1541   1537   1544     1  0.0000000  1.2552000  3
   1543   1541   1553   1559     1  0.0000000  0.6508444  3
   1543   1541   1553   1554     1  0.0000000  0.6508444  3
   1543   1541   1553   1555     1  0.0000000  0.6508444  3
   1544   1547   1556   1557     1  0.0000000  0.6508444  3
   1544   1547   1556   1558     1  0.0000000  0.6508444  3
   1545   1544   1547   1556     1  0.0000000  0.6508444  3
   1545   1544   1547   1548     1  0.0000000  0.6508444  3
   1545   1544   1547   1549     1  0.0000000  0.6508444  3
   1546   1544   1547   1556     1  0.0000000  0.6508444  3
   1546   1544   1547   1548     1  0.0000000  0.6508444  3
   1546   1544   1547   1549     1  0.0000000  0.6508444  3
   1548   1547   1556   1565     1  0.0000000  1.0460000  1
   1548   1547   1556   1565     1  0.0000000  0.0000000  3
   1548   1547   1556   1557     1  0.0000000  0.6508444  3
   1548   1547   1556   1558     1  0.0000000  0.6508444  3
   1549   1547   1556   1565     1  0.0000000  1.0460000  1
   1549   1547   1556   1565     1  0.0000000  0.0000000  3
   1549   1547   1556   1557     1  0.0000000  0.6508444  3
   1549   1547   1556   1558     1  0.0000000  0.6508444  3
   1551   1550   1562   3285     1  0.0000000  1.0460000  1
   1551   1550   1562   3285     1  0.0000000  0.0000000  3
   1551   1550   1562   1563     1  0.0000000  0.6508444  3
   1551   1550   1562   1564     1  0.0000000  0.6508444  3
   1552   1550   1562   3285     1  0.0000000  1.0460000  1
   1552   1550   1562   3285     1  0.0000000  0.0000000  3
   1552   1550   1562   1563     1  0.0000000  0.6508444  3
   1552   1550   1562   1564     1  0.0000000  0.6508444  3
   1554   1553   1559   3254     1  0.0000000  1.0460000  1
   1554   1553   1559   3254     1  0.0000000  0.0000000  3
   1554   1553   1559   1560     1  0.0000000  0.6508444  3
   1554   1553   1559   1561     1  0.0000000  0.6508444  3
   1555   1553   1559   3254     1  0.0000000  1.0460000  1
   1555   1553   1559   3254     1  0.0000000  0.0000000  3
   1555   1553   1559   1560     1  0.0000000  0.6508444  3
   1555   1553   1559   1561     1  0.0000000  0.6508444  3
   1559   3254   3224   3225     1  0.0000000  1.6038667  3
   1559   3254   3224   3226     1  0.0000000  1.6038667  3
   1560   1559   3254   3224     1  0.0000000  1.6038667  3
   1561   1559   3254   3224     1  0.0000000  1.6038667  3
   1562   3285   3255   3256     1  0.0000000  1.6038667  3
   1562   3285   3255   3257     1  0.0000000  1.6038667  3
   1563   1562   3285   3255     1  0.0000000  1.6038667  3
   1564   1562   3285   3255     1  0.0000000  1.6038667  3
   1566   1567   1579   1580     1  0.0000000  0.6508444  3
   1566   1567   1579   1581     1  0.0000000  0.6508444  3
   1566   1570   1582   1583     1  0.0000000  0.6508444  3
   1566   1570   1582   1584     1  0.0000000  0.6508444  3
   1566   1573   1576   1577     1  0.0000000  0.6508444  3
   1566   1573   1576   1578     1  0.0000000  0.6508444  3
   1567   1566   1570   1571     1  0.0000000  1.2552000  3
   1567   1566   1570   1572     1  0.0000000  1.2552000  3
   1567   1566   1573   1574     1  0.0000000  1.2552000  3
   1567   1566   1573   1575     1  0.0000000  1.2552000  3
   1567   1579   1591   1592     1  0.0000000  0.6508444  3
   1567   1579   1591   1593     1  0.0000000  0.6508444  3
   1568   1567   1566   1570     1  0.0000000  1.2552000  3
   1568   1567   1566   1573     1  0.0000000  1.2552000  3
   1568   1567   1579   1591     1  0.0000000  0.6508444  3
   1568   1567   1579   1580     1  0.0000000  0.6508444  3
   1568   1567   1579   1581     1  0.0000000  0.6508444  3
   1569   1567   1566   1570     1  0.0000000  1.2552000  3
   1569   1567   1566   1573     1  0.0000000  1.2552000  3
   1569   1567   1579   1591     1  0.0000000  0.6508444  3
   1569   1567   1579   1580     1  0.0000000  0.6508444  3
   1569   1567   1579   1581     1  0.0000000  0.6508444  3
   1570   1566   1573   1574     1  0.0000000  1.2552000  3
   1570   1566   1573   1575     1  0.0000000  1.2552000  3
   1570   1582   1588   1589     1  0.0000000  0.6508444  3
   1570   1582   1588   1590     1  0.0000000  0.6508444  3
   1571   1570   1566   1573     1  0.0000000  1.2552000  3
   1571   1570   1582   1588     1  0.0000000  0.6508444  3
   1571   1570   1582   1583     1  0.0000000  0.6508444  3
   1571   1570   1582   1584     1  0.0000000  0.6508444  3
   1572   1570   1566   1573     1  0.0000000  1.2552000  3
   1572   1570   1582   1588     1  0.0000000  0.6508444  3
   1572   1570   1582   1583     1  0.0000000  0.6508444  3
   1572   1570   1582   1584     1  0.0000000  0.6508444  3
   1573   1576   1585   1586     1  0.0000000  0.6508444  3
   1573   1576   1585   1587     1  0.0000000  0.6508444  3
   1574   1573   1576   1585     1  0.0000000  0.6508444  3
   1574   1573   1576   1577     1  0.0000000  0.6508444  3
   1574   1573   1576   1578     1  0.0000000  0.6508444  3
   1575   1573   1576   1585     1  0.0000000  0.6508444  3
   1575   1573   1576   1577     1  0.0000000  0.6508444  3
   1575   1573   1576   1578     1  0.0000000  0.6508444  3
   1577   1576   1585   1594     1  0.0000000  1.0460000  1
   1577   1576   1585   1594     1  0.0000000  0.0000000  3
   1577   1576   1585   1586     1  0.0000000  0.6508444  3
   1577   1576   1585   1587     1  0.0000000  0.6508444  3
   1578   1576   1585   1594     1  0.0000000  1.0460000  1
   1578   1576   1585   1594     1  0.0000000  0.0000000  3
   1578   1576   1585   1586     1  0.0000000  0.6508444  3
   1578   1576   1585   1587     1  0.0000000  0.6508444  3
   1580   1579   1591   3347     1  0.0000000  1.0460000  1
   1580   1579   1591   3347     1  0.0000000  0.0000000  3
   1580   1579   1591   1592     1  0.0000000  0.6508444  3
   1580   1579   1591   1593     1  0.0000000  0.6508444  3
   1581   1579   1591   3347     1  0.0000000  1.0460000  1
   1581   1579   1591   3347     1  0.0000000  0.0000000  3
   1581   1579   1591   1592     1  0.0000000  0.6508444  3
   1581   1579   1591   1593     1  0.0000000  0.6508444  3
   1583   1582   1588   3316     1  0.0000000  1.0460000  1
   1583   1582   1588   3316     1  0.0000000  0.0000000  3
   1583   1582   1588   1589     1  0.0000000  0.6508444  3
   1583   1582   1588   1590     1  0.0000000  0.6508444  3
   1584   1582   1588   3316     1  0.0000000  1.0460000  1
   1584   1582   1588   3316     1  0.0000000  0.0000000  3
   1584   1582   1588   1589     1  0.0000000  0.6508444  3
   1584   1582   1588   1590     1  0.0000000  0.6508444  3
   1588   3316   3286   3287     1  0.0000000  1.6038667  3
   1588   3316   3286   3288     1  0.0000000  1.6038667  3
   1589   1588   3316   3286     1  0.0000000  1.6038667  3
   1590   1588   3316   3286     1  0.0000000  1.6038667  3
   1591   3347   3317   3318     1  0.0000000  1.6038667  3
   1591   3347   3317   3319     1  0.0000000  1.6038667  3
   1592   1591   3347   3317     1  0.0000000  1.6038667  3
   1593   1591   3347   3317     1  0.0000000  1.6038667  3
   1595   1596   1608   1609     1  0.0000000  0.6508444  3
   1595   1596   1608   1610     1  0.0000000  0.6508444  3
   1595   1599   1611   1612     1  0.0000000  0.6508444  3
   1595   1599   1611   1613     1  0.0000000  0.6508444  3
   1595   1602   1605   1606     1  0.0000000  0.6508444  3
   1595   1602   1605   1607     1  0.0000000  0.6508444  3
   1596   1595   1599   1600     1  0.0000000  1.2552000  3
   1596   1595   1599   1601     1  0.0000000  1.2552000  3
   1596   1595   1602   1603     1  0.0000000  1.2552000  3
   1596   1595   1602   1604     1  0.0000000  1.2552000  3
   1596   1608   1620   1621     1  0.0000000  0.6508444  3
   1596   1608   1620   1622     1  0.0000000  0.6508444  3
   1597   1596   1595   1599     1  0.0000000  1.2552000  3
   1597   1596   1595   1602     1  0.0000000  1.2552000  3
   1597   1596   1608   1620     1  0.0000000  0.6508444  3
   1597   1596   1608   1609     1  0.0000000  0.6508444  3
   1597   1596   1608   1610     1  0.0000000  0.6508444  3
   1598   1596   1595   1599     1  0.0000000  1.2552000  3
   1598   1596   1595   1602     1  0.0000000  1.2552000  3
   1598   1596   1608   1620     1  0.0000000  0.6508444  3
   1598   1596   1608   1609     1  0.0000000  0.6508444  3
   1598   1596   1608   1610     1  0.0000000  0.6508444  3
   1599   1595   1602   1603     1  0.0000000  1.2552000  3
   1599   1595   1602   1604     1  0.0000000  1.2552000  3
   1599   1611   1617   1618     1  0.0000000  0.6508444  3
   1599   1611   1617   1619     1  0.0000000  0.6508444  3
   1600   1599   1595   1602     1  0.0000000  1.2552000  3
   1600   1599   1611   1617     1  0.0000000  0.6508444  3
   1600   1599   1611   1612     1  0.0000000  0.6508444  3
   1600   1599   1611   1613     1  0.0000000  0.6508444  3
   1601   1599   1595   1602     1  0.0000000  1.2552000  3
   1601   1599   1611   1617     1  0.0000000  0.6508444  3
   1601   1599   1611   1612     1  0.0000000  0.6508444  3
   1601   1599   1611   1613     1  0.0000000  0.6508444  3
   1602   1605   1614   1615     1  0.0000000  0.6508444  3
   1602   1605   1614   1616     1  0.0000000  0.6508444  3
   1603   1602   1605   1614     1  0.0000000  0.6508444  3
   1603   1602   1605   1606     1  0.0000000  0.6508444  3
   1603   1602   1605   1607     1  0.0000000  0.6508444  3
   1604   1602   1605   1614     1  0.0000000  0.6508444  3
   1604   1602   1605   1606     1  0.0000000  0.6508444  3
   1604   1602   1605   1607     1  0.0000000  0.6508444  3
   1606   1605   1614   1623     1  0.0000000  1.0460000  1
   1606   1605   1614   1623     1  0.0000000  0.0000000  3
   1606   1605   1614   1615     1  0.0000000  0.6508444  3
   1606   1605   1614   1616     1  0.0000000  0.6508444  3
   1607   1605   1614   1623     1  0.0000000  1.0460000  1
   1607   1605   1614   1623     1  0.0000000  0.0000000  3
   1607   1605   1614   1615     1  0.0000000  0.6508444  3
   1607   1605   1614   1616     1  0.0000000  0.6508444  3
   1609   1608   1620   3409     1  0.0000000  1.0460000  1
   1609   1608   1620   3409     1  0.0000000  0.0000000  3
   1609   1608   1620   1621     1  0.0000000  0.6508444  3
   1609   1608   1620   1622     1  0.0000000  0.6508444  3
   1610   1608   1620   3409     1  0.0000000  1.0460000  1
   1610   1608   1620   3409     1  0.0000000  0.0000000  3
   1610   1608   1620   1621     1  0.0000000  0.6508444  3
   1610   1608   1620   1622     1  0.0000000  0.6508444  3
   1612   1611   1617   3378     1  0.0000000  1.0460000  1
   1612   1611   1617   3378     1  0.0000000  0.0000000  3
   1612   1611   1617   1618     1  0.0000000  0.6508444  3
   1612   1611   1617   1619     1  0.0000000  0.6508444  3
   1613   1611   1617   3378     1  0.0000000  1.0460000  1
   1613   1611   1617   3378     1  0.0000000  0.0000000  3
   1613   1611   1617   1618     1  0.0000000  0.6508444  3
   1613   1611   1617   1619     1  0.0000000  0.6508444  3
   1617   3378   3348   3349     1  0.0000000  1.6038667  3
   1617   3378   3348   3350     1  0.0000000  1.6038667  3
   1618   1617   3378   3348     1  0.0000000  1.6038667  3
   1619   1617   3378   3348     1  0.0000000  1.6038667  3
   1620   3409   3379   3380     1  0.0000000  1.6038667  3
   1620   3409   3379   3381     1  0.0000000  1.6038667  3
   1621   1620   3409   3379     1  0.0000000  1.6038667  3
   1622   1620   3409   3379     1  0.0000000  1.6038667  3
   1624   1625   1637   1638     1  0.0000000  0.6508444  3
   1624   1625   1637   1639     1  0.0000000  0.6508444  3
   1624   1628   1640   1641     1  0.0000000  0.6508444  3
   1624   1628   1640   1642     1  0.0000000  0.6508444  3
   1624   1631   1634   1635     1  0.0000000  0.6508444  3
   1624   1631   1634   1636     1  0.0000000  0.6508444  3
   1625   1624   1628   1629     1  0.0000000  1.2552000  3
   1625   1624   1628   1630     1  0.0000000  1.2552000  3
   1625   1624   1631   1632     1  0.0000000  1.2552000  3
   1625   1624   1631   1633     1  0.0000000  1.2552000  3
   1625   1637   1649   1650     1  0.0000000  0.6508444  3
   1625   1637   1649   1651     1  0.0000000  0.6508444  3
   1626   1625   1624   1628     1  0.0000000  1.2552000  3
   1626   1625   1624   1631     1  0.0000000  1.2552000  3
   1626   1625   1637   1649     1  0.0000000  0.6508444  3
   1626   1625   1637   1638     1  0.0000000  0.6508444  3
   1626   1625   1637   1639     1  0.0000000  0.6508444  3
   1627   1625   1624   1628     1  0.0000000  1.2552000  3
   1627   1625   1624   1631     1  0.0000000  1.2552000  3
   1627   1625   1637   1649     1  0.0000000  0.6508444  3
   1627   1625   1637   1638     1  0.0000000  0.6508444  3
   1627   1625   1637   1639     1  0.0000000  0.6508444  3
   1628   1624   1631   1632     1  0.0000000  1.2552000  3
   1628   1624   1631   1633     1  0.0000000  1.2552000  3
   1628   1640   1646   1647     1  0.0000000  0.6508444  3
   1628   1640   1646   1648     1  0.0000000  0.6508444  3
   1629   1628   1624   1631     1  0.0000000  1.2552000  3
   1629   1628   1640   1646     1  0.0000000  0.6508444  3
   1629   1628   1640   1641     1  0.0000000  0.6508444  3
   1629   1628   1640   1642     1  0.0000000  0.6508444  3
   1630   1628   1624   1631     1  0.0000000  1.2552000  3
   1630   1628   1640   1646     1  0.0000000  0.6508444  3
   1630   1628   1640   1641     1  0.0000000  0.6508444  3
   1630   1628   1640   1642     1  0.0000000  0.6508444  3
   1631   1634   1643   1644     1  0.0000000  0.6508444  3
   1631   1634   1643   1645     1  0.0000000  0.6508444  3
   1632   1631   1634   1643     1  0.0000000  0.6508444  3
   1632   1631   1634   1635     1  0.0000000  0.6508444  3
   1632   1631   1634   1636     1  0.0000000  0.6508444  3
   1633   1631   1634   1643     1  0.0000000  0.6508444  3
   1633   1631   1634   1635     1  0.0000000  0.6508444  3
   1633   1631   1634   1636     1  0.0000000  0.6508444  3
   1635   1634   1643   1652     1  0.0000000  1.0460000  1
   1635   1634   1643   1652     1  0.0000000  0.0000000  3
   1635   1634   1643   1644     1  0.0000000  0.6508444  3
   1635   1634   1643   1645     1  0.0000000  0.6508444  3
   1636   1634   1643   1652     1  0.0000000  1.0460000  1
   1636   1634   1643   1652     1  0.0000000  0.0000000  3
   1636   1634   1643   1644     1  0.0000000  0.6508444  3
   1636   1634   1643   1645     1  0.0000000  0.6508444  3
   1638   1637   1649   3471     1  0.0000000  1.0460000  1
   1638   1637   1649   3471     1  0.0000000  0.0000000  3
   1638   1637   1649   1650     1  0.0000000  0.6508444  3
   1638   1637   1649   1651     1  0.0000000  0.6508444  3
   1639   1637   1649   3471     1  0.0000000  1.0460000  1
   1639   1637   1649   3471     1  0.0000000  0.0000000  3
   1639   1637   1649   1650     1  0.0000000  0.6508444  3
   1639   1637   1649   1651     1  0.0000000  0.6508444  3
   1641   1640   1646   3440     1  0.0000000  1.0460000  1
   1641   1640   1646   3440     1  0.0000000  0.0000000  3
   1641   1640   1646   1647     1  0.0000000  0.6508444  3
   1641   1640   1646   1648     1  0.0000000  0.6508444  3
   1642   1640   1646   3440     1  0.0000000  1.0460000  1
   1642   1640   1646   3440     1  0.0000000  0.0000000  3
   1642   1640   1646   1647     1  0.0000000  0.6508444  3
   1642   1640   1646   1648     1  0.0000000  0.6508444  3
   1646   3440   3410   3411     1  0.0000000  1.6038667  3
   1646   3440   3410   3412     1  0.0000000  1.6038667  3
   1647   1646   3440   3410     1  0.0000000  1.6038667  3
   1648   1646   3440   3410     1  0.0000000  1.6038667  3
   1649   3471   3441   3442     1  0.0000000  1.6038667  3
   1649   3471   3441   3443     1  0.0000000  1.6038667  3
   1650   1649   3471   3441     1  0.0000000  1.6038667  3
   1651   1649   3471   3441     1  0.0000000  1.6038667  3
   1653   1654   1666   1667     1  0.0000000  0.6508444  3
   1653   1654   1666   1668     1  0.0000000  0.6508444  3
   1653   1657   1669   1670     1  0.0000000  0.6508444  3
   1653   1657   1669   1671     1  0.0000000  0.6508444  3
   1653   1660   1663   1664     1  0.0000000  0.6508444  3
   1653   1660   1663   1665     1  0.0000000  0.6508444  3
   1654   1653   1657   1658     1  0.0000000  1.2552000  3
   1654   1653   1657   1659     1  0.0000000  1.2552000  3
   1654   1653   1660   1661     1  0.0000000  1.2552000  3
   1654   1653   1660   1662     1  0.0000000  1.2552000  3
   1654   1666   1678   1679     1  0.0000000  0.6508444  3
   1654   1666   1678   1680     1  0.0000000  0.6508444  3
   1655   1654   1653   1657     1  0.0000000  1.2552000  3
   1655   1654   1653   1660     1  0.0000000  1.2552000  3
   1655   1654   1666   1678     1  0.0000000  0.6508444  3
   1655   1654   1666   1667     1  0.0000000  0.6508444  3
   1655   1654   1666   1668     1  0.0000000  0.6508444  3
   1656   1654   1653   1657     1  0.0000000  1.2552000  3
   1656   1654   1653   1660     1  0.0000000  1.2552000  3
   1656   1654   1666   1678     1  0.0000000  0.6508444  3
   1656   1654   1666   1667     1  0.0000000  0.6508444  3
   1656   1654   1666   1668     1  0.0000000  0.6508444  3
   1657   1653   1660   1661     1  0.0000000  1.2552000  3
   1657   1653   1660   1662     1  0.0000000  1.2552000  3
   1657   1669   1675   1676     1  0.0000000  0.6508444  3
   1657   1669   1675   1677     1  0.0000000  0.6508444  3
   1658   1657   1653   1660     1  0.0000000  1.2552000  3
   1658   1657   1669   1675     1  0.0000000  0.6508444  3
   1658   1657   1669   1670     1  0.0000000  0.6508444  3
   1658   1657   1669   1671     1  0.0000000  0.6508444  3
   1659   1657   1653   1660     1  0.0000000  1.2552000  3
   1659   1657   1669   1675     1  0.0000000  0.6508444  3
   1659   1657   1669   1670     1  0.0000000  0.6508444  3
   1659   1657   1669   1671     1  0.0000000  0.6508444  3
   1660   1663   1672   1673     1  0.0000000  0.6508444  3
   1660   1663   1672   1674     1  0.0000000  0.6508444  3
   1661   1660   1663   1672     1  0.0000000  0.6508444  3
   1661   1660   1663   1664     1  0.0000000  0.6508444  3
   1661   1660   1663   1665     1  0.0000000  0.6508444  3
   1662   1660   1663   1672     1  0.0000000  0.6508444  3
   1662   1660   1663   1664     1  0.0000000  0.6508444  3
   1662   1660   1663   1665     1  0.0000000  0.6508444  3
   1664   1663   1672   1681     1  0.0000000  1.0460000  1
   1664   1663   1672   1681     1  0.0000000  0.0000000  3
   1664   1663   1672   1673     1  0.0000000  0.6508444  3
   1664   1663   1672   1674     1  0.0000000  0.6508444  3
   1665   1663   1672   1681     1  0.0000000  1.0460000  1
   1665   1663   1672   1681     1  0.0000000  0.0000000  3
   1665   1663   1672   1673     1  0.0000000  0.6508444  3
   1665   1663   1672   1674     1  0.0000000  0.6508444  3
   1667   1666   1678   3533     1  0.0000000  1.0460000  1
   1667   1666   1678   3533     1  0.0000000  0.0000000  3
   1667   1666   1678   1679     1  0.0000000  0.6508444  3
   1667   1666   1678   1680     1  0.0000000  0.6508444  3
   1668   1666   1678   3533     1  0.0000000  1.0460000  1
   1668   1666   1678   3533     1  0.0000000  0.0000000  3
   1668   1666   1678   1679     1  0.0000000  0.6508444  3
   1668   1666   1678   1680     1  0.0000000  0.6508444  3
   1670   1669   1675   3502     1  0.0000000  1.0460000  1
   1670   1669   1675   3502     1  0.0000000  0.0000000  3
   1670   1669   1675   1676     1  0.0000000  0.6508444  3
   1670   1669   1675   1677     1  0.0000000  0.6508444  3
   1671   1669   1675   3502     1  0.0000000  1.0460000  1
   1671   1669   1675   3502     1  0.0000000  0.0000000  3
   1671   1669   1675   1676     1  0.0000000  0.6508444  3
   1671   1669   1675   1677     1  0.0000000  0.6508444  3
   1675   3502   3472   3473     1  0.0000000  1.6038667  3
   1675   3502   3472   3474     1  0.0000000  1.6038667  3
   1676   1675   3502   3472     1  0.0000000  1.6038667  3
   1677   1675   3502   3472     1  0.0000000  1.6038667  3
   1678   3533   3503   3504     1  0.0000000  1.6038667  3
   1678   3533   3503   3505     1  0.0000000  1.6038667  3
   1679   1678   3533   3503     1  0.0000000  1.6038667  3
   1680   1678   3533   3503     1  0.0000000  1.6038667  3
   1682   1683   1695   1696     1  0.0000000  0.6508444  3
   1682   1683   1695   1697     1  0.0000000  0.6508444  3
   1682   1686   1698   1699     1  0.0000000  0.6508444  3
   1682   1686   1698   1700     1  0.0000000  0.6508444  3
   1682   1689   1692   1693     1  0.0000000  0.6508444  3
   1682   1689   1692   1694     1  0.0000000  0.6508444  3
   1683   1682   1686   1687     1  0.0000000  1.2552000  3
   1683   1682   1686   1688     1  0.0000000  1.2552000  3
   1683   1682   1689   1690     1  0.0000000  1.2552000  3
   1683   1682   1689   1691     1  0.0000000  1.2552000  3
   1683   1695   1707   1708     1  0.0000000  0.6508444  3
   1683   1695   1707   1709     1  0.0000000  0.6508444  3
   1684   1683   1682   1686     1  0.0000000  1.2552000  3
   1684   1683   1682   1689     1  0.0000000  1.2552000  3
   1684   1683   1695   1707     1  0.0000000  0.6508444  3
   1684   1683   1695   1696     1  0.0000000  0.6508444  3
   1684   1683   1695   1697     1  0.0000000  0.6508444  3
   1685   1683   1682   1686     1  0.0000000  1.2552000  3
   1685   1683   1682   1689     1  0.0000000  1.2552000  3
   1685   1683   1695   1707     1  0.0000000  0.6508444  3
   1685   1683   1695   1696     1  0.0000000  0.6508444  3
   1685   1683   1695   1697     1  0.0000000  0.6508444  3
   1686   1682   1689   1690     1  0.0000000  1.2552000  3
   1686   1682   1689   1691     1  0.0000000  1.2552000  3
   1686   1698   1704   1705     1  0.0000000  0.6508444  3
   1686   1698   1704   1706     1  0.0000000  0.6508444  3
   1687   1686   1682   1689     1  0.0000000  1.2552000  3
   1687   1686   1698   1704     1  0.0000000  0.6508444  3
   1687   1686   1698   1699     1  0.0000000  0.6508444  3
   1687   1686   1698   1700     1  0.0000000  0.6508444  3
   1688   1686   1682   1689     1  0.0000000  1.2552000  3
   1688   1686   1698   1704     1  0.0000000  0.6508444  3
   1688   1686   1698   1699     1  0.0000000  0.6508444  3
   1688   1686   1698   1700     1  0.0000000  0.6508444  3
   1689   1692   1701   1702     1  0.0000000  0.6508444  3
   1689   1692   1701   1703     1  0.0000000  0.6508444  3
   1690   1689   1692   1701     1  0.0000000  0.6508444  3
   1690   1689   1692   1693     1  0.0000000  0.6508444  3
   1690   1689   1692   1694     1  0.0000000  0.6508444  3
   1691   1689   1692   1701     1  0.0000000  0.6508444  3
   1691   1689   1692   1693     1  0.0000000  0.6508444  3
   1691   1689   1692   1694     1  0.0000000  0.6508444  3
   1693   1692   1701   1710     1  0.0000000  1.0460000  1
   1693   1692   1701   1710     1  0.0000000  0.0000000  3
   1693   1692   1701   1702     1  0.0000000  0.6508444  3
   1693   1692   1701   1703     1  0.0000000  0.6508444  3
   1694   1692   1701   1710     1  0.0000000  1.0460000  1
   1694   1692   1701   1710     1  0.0000000  0.0000000  3
   1694   1692   1701   1702     1  0.0000000  0.6508444  3
   1694   1692   1701   1703     1  0.0000000  0.6508444  3
   1696   1695   1707   3595     1  0.0000000  1.0460000  1
   1696   1695   1707   3595     1  0.0000000  0.0000000  3
   1696   1695   1707   1708     1  0.0000000  0.6508444  3
   1696   1695   1707   1709     1  0.0000000  0.6508444  3
   1697   1695   1707   3595     1  0.0000000  1.0460000  1
   1697   1695   1707   3595     1  0.0000000  0.0000000  3
   1697   1695   1707   1708     1  0.0000000  0.6508444  3
   1697   1695   1707   1709     1  0.0000000  0.6508444  3
   1699   1698   1704   3564     1  0.0000000  1.0460000  1
   1699   1698   1704   3564     1  0.0000000  0.0000000  3
   1699   1698   1704   1705     1  0.0000000  0.6508444  3
   1699   1698   1704   1706     1  0.0000000  0.6508444  3
   1700   1698   1704   3564     1  0.0000000  1.0460000  1
   1700   1698   1704   3564     1  0.0000000  0.0000000  3
   1700   1698   1704   1705     1  0.0000000  0.6508444  3
   1700   1698   1704   1706     1  0.0000000  0.6508444  3
   1704   3564   3534   3535     1  0.0000000  1.6038667  3
   1704   3564   3534   3536     1  0.0000000  1.6038667  3
   1705   1704   3564   3534     1  0.0000000  1.6038667  3
   1706   1704   3564   3534     1  0.0000000  1.6038667  3
   1707   3595   3565   3566     1  0.0000000  1.6038667  3
   1707   3595   3565   3567     1  0.0000000  1.6038667  3
   1708   1707   3595   3565     1  0.0000000  1.6038667  3
   1709   1707   3595   3565     1  0.0000000  1.6038667  3
   1711   1712   1724   1725     1  0.0000000  0.6508444  3
   1711   1712   1724   1726     1  0.0000000  0.6508444  3
   1711   1715   1727   1728     1  0.0000000  0.6508444  3
   1711   1715   1727   1729     1  0.0000000  0.6508444  3
   1711   1718   1721   1722     1  0.0000000  0.6508444  3
   1711   1718   1721   1723     1  0.0000000  0.6508444  3
   1712   1711   1715   1716     1  0.0000000  1.2552000  3
   1712   1711   1715   1717     1  0.0000000  1.2552000  3
   1712   1711   1718   1719     1  0.0000000  1.2552000  3
   1712   1711   1718   1720     1  0.0000000  1.2552000  3
   1712   1724   1736   1737     1  0.0000000  0.6508444  3
   1712   1724   1736   1738     1  0.0000000  0.6508444  3
   1713   1712   1711   1715     1  0.0000000  1.2552000  3
   1713   1712   1711   1718     1  0.0000000  1.2552000  3
   1713   1712   1724   1736     1  0.0000000  0.6508444  3
   1713   1712   1724   1725     1  0.0000000  0.6508444  3
   1713   1712   1724   1726     1  0.0000000  0.6508444  3
   1714   1712   1711   1715     1  0.0000000  1.2552000  3
   1714   1712   1711   1718     1  0.0000000  1.2552000  3
   1714   1712   1724   1736     1  0.0000000  0.6508444  3
   1714   1712   1724   1725     1  0.0000000  0.6508444  3
   1714   1712   1724   1726     1  0.0000000  0.6508444  3
   1715   1711   1718   1719     1  0.0000000  1.2552000  3
   1715   1711   1718   1720     1  0.0000000  1.2552000  3
   1715   1727   1733   1734     1  0.0000000  0.6508444  3
   1715   1727   1733   1735     1  0.0000000  0.6508444  3
   1716   1715   1711   1718     1  0.0000000  1.2552000  3
   1716   1715   1727   1733     1  0.0000000  0.6508444  3
   1716   1715   1727   1728     1  0.0000000  0.6508444  3
   1716   1715   1727   1729     1  0.0000000  0.6508444  3
   1717   1715   1711   1718     1  0.0000000  1.2552000  3
   1717   1715   1727   1733     1  0.0000000  0.6508444  3
   1717   1715   1727   1728     1  0.0000000  0.6508444  3
   1717   1715   1727   1729     1  0.0000000  0.6508444  3
   1718   1721   1730   1731     1  0.0000000  0.6508444  3
   1718   1721   1730   1732     1  0.0000000  0.6508444  3
   1719   1718   1721   1730     1  0.0000000  0.6508444  3
   1719   1718   1721   1722     1  0.0000000  0.6508444  3
   1719   1718   1721   1723     1  0.0000000  0.6508444  3
   1720   1718   1721   1730     1  0.0000000  0.6508444  3
   1720   1718   1721   1722     1  0.0000000  0.6508444  3
   1720   1718   1721   1723     1  0.0000000  0.6508444  3
   1722   1721   1730   1739     1  0.0000000  1.0460000  1
   1722   1721   1730   1739     1  0.0000000  0.0000000  3
   1722   1721   1730   1731     1  0.0000000  0.6508444  3
   1722   1721   1730   1732     1  0.0000000  0.6508444  3
   1723   1721   1730   1739     1  0.0000000  1.0460000  1
   1723   1721   1730   1739     1  0.0000000  0.0000000  3
   1723   1721   1730   1731     1  0.0000000  0.6508444  3
   1723   1721   1730   1732     1  0.0000000  0.6508444  3
   1725   1724   1736   3657     1  0.0000000  1.0460000  1
   1725   1724   1736   3657     1  0.0000000  0.0000000  3
   1725   1724   1736   1737     1  0.0000000  0.6508444  3
   1725   1724   1736   1738     1  0.0000000  0.6508444  3
   1726   1724   1736   3657     1  0.0000000  1.0460000  1
   1726   1724   1736   3657     1  0.0000000  0.0000000  3
   1726   1724   1736   1737     1  0.0000000  0.6508444  3
   1726   1724   1736   1738     1  0.0000000  0.6508444  3
   1728   1727   1733   3626     1  0.0000000  1.0460000  1
   1728   1727   1733   3626     1  0.0000000  0.0000000  3
   1728   1727   1733   1734     1  0.0000000  0.6508444  3
   1728   1727   1733   1735     1  0.0000000  0.6508444  3
   1729   1727   1733   3626     1  0.0000000  1.0460000  1
   1729   1727   1733   3626     1  0.0000000  0.0000000  3
   1729   1727   1733   1734     1  0.0000000  0.6508444  3
   1729   1727   1733   1735     1  0.0000000  0.6508444  3
   1733   3626   3596   3597     1  0.0000000  1.6038667  3
   1733   3626   3596   3598     1  0.0000000  1.6038667  3
   1734   1733   3626   3596     1  0.0000000  1.6038667  3
   1735   1733   3626   3596     1  0.0000000  1.6038667  3
   1736   3657   3627   3628     1  0.0000000  1.6038667  3
   1736   3657   3627   3629     1  0.0000000  1.6038667  3
   1737   1736   3657   3627     1  0.0000000  1.6038667  3
   1738   1736   3657   3627     1  0.0000000  1.6038667  3
   1740   1741   1753   1754     1  0.0000000  0.6508444  3
   1740   1741   1753   1755     1  0.0000000  0.6508444  3
   1740   1744   1756   1757     1  0.0000000  0.6508444  3
   1740   1744   1756   1758     1  0.0000000  0.6508444  3
   1740   1747   1750   1751     1  0.0000000  0.6508444  3
   1740   1747   1750   1752     1  0.0000000  0.6508444  3
   1741   1740   1744   1745     1  0.0000000  1.2552000  3
   1741   1740   1744   1746     1  0.0000000  1.2552000  3
   1741   1740   1747   1748     1  0.0000000  1.2552000  3
   1741   1740   1747   1749     1  0.0000000  1.2552000  3
   1741   1753   1765   1766     1  0.0000000  0.6508444  3
   1741   1753   1765   1767     1  0.0000000  0.6508444  3
   1742   1741   1740   1744     1  0.0000000  1.2552000  3
   1742   1741   1740   1747     1  0.0000000  1.2552000  3
   1742   1741   1753   1765     1  0.0000000  0.6508444  3
   1742   1741   1753   1754     1  0.0000000  0.6508444  3
   1742   1741   1753   1755     1  0.0000000  0.6508444  3
   1743   1741   1740   1744     1  0.0000000  1.2552000  3
   1743   1741   1740   1747     1  0.0000000  1.2552000  3
   1743   1741   1753   1765     1  0.0000000  0.6508444  3
   1743   1741   1753   1754     1  0.0000000  0.6508444  3
   1743   1741   1753   1755     1  0.0000000  0.6508444  3
   1744   1740   1747   1748     1  0.0000000  1.2552000  3
   1744   1740   1747   1749     1  0.0000000  1.2552000  3
   1744   1756   1762   1763     1  0.0000000  0.6508444  3
   1744   1756   1762   1764     1  0.0000000  0.6508444  3
   1745   1744   1740   1747     1  0.0000000  1.2552000  3
   1745   1744   1756   1762     1  0.0000000  0.6508444  3
   1745   1744   1756   1757     1  0.0000000  0.6508444  3
   1745   1744   1756   1758     1  0.0000000  0.6508444  3
   1746   1744   1740   1747     1  0.0000000  1.2552000  3
   1746   1744   1756   1762     1  0.0000000  0.6508444  3
   1746   1744   1756   1757     1  0.0000000  0.6508444  3
   1746   1744   1756   1758     1  0.0000000  0.6508444  3
   1747   1750   1759   1760     1  0.0000000  0.6508444  3
   1747   1750   1759   1761     1  0.0000000  0.6508444  3
   1748   1747   1750   1759     1  0.0000000  0.6508444  3
   1748   1747   1750   1751     1  0.0000000  0.6508444  3
   1748   1747   1750   1752     1  0.0000000  0.6508444  3
   1749   1747   1750   1759     1  0.0000000  0.6508444  3
   1749   1747   1750   1751     1  0.0000000  0.6508444  3
   1749   1747   1750   1752     1  0.0000000  0.6508444  3
   1751   1750   1759   1768     1  0.0000000  1.0460000  1
   1751   1750   1759   1768     1  0.0000000  0.0000000  3
   1751   1750   1759   1760     1  0.0000000  0.6508444  3
   1751   1750   1759   1761     1  0.0000000  0.6508444  3
   1752   1750   1759   1768     1  0.0000000  1.0460000  1
   1752   1750   1759   1768     1  0.0000000  0.0000000  3
   1752   1750   1759   1760     1  0.0000000  0.6508444  3
   1752   1750   1759   1761     1  0.0000000  0.6508444  3
   1754   1753   1765   3719     1  0.0000000  1.0460000  1
   1754   1753   1765   3719     1  0.0000000  0.0000000  3
   1754   1753   1765   1766     1  0.0000000  0.6508444  3
   1754   1753   1765   1767     1  0.0000000  0.6508444  3
   1755   1753   1765   3719     1  0.0000000  1.0460000  1
   1755   1753   1765   3719     1  0.0000000  0.0000000  3
   1755   1753   1765   1766     1  0.0000000  0.6508444  3
   1755   1753   1765   1767     1  0.0000000  0.6508444  3
   1757   1756   1762   3688     1  0.0000000  1.0460000  1
   1757   1756   1762   3688     1  0.0000000  0.0000000  3
   1757   1756   1762   1763     1  0.0000000  0.6508444  3
   1757   1756   1762   1764     1  0.0000000  0.6508444  3
   1758   1756   1762   3688     1  0.0000000  1.0460000  1
   1758   1756   1762   3688     1  0.0000000  0.0000000  3
   1758   1756   1762   1763     1  0.0000000  0.6508444  3
   1758   1756   1762   1764     1  0.0000000  0.6508444  3
   1762   3688   3658   3659     1  0.0000000  1.6038667  3
   1762   3688   3658   3660     1  0.0000000  1.6038667  3
   1763   1762   3688   3658     1  0.0000000  1.6038667  3
   1764   1762   3688   3658     1  0.0000000  1.6038667  3
   1765   3719   3689   3690     1  0.0000000  1.6038667  3
   1765   3719   3689   3691     1  0.0000000  1.6038667  3
   1766   1765   3719   3689     1  0.0000000  1.6038667  3
   1767   1765   3719   3689     1  0.0000000  1.6038667  3
   1769   1770   1782   1783     1  0.0000000  0.6508444  3
   1769   1770   1782   1784     1  0.0000000  0.6508444  3
   1769   1773   1785   1786     1  0.0000000  0.6508444  3
   1769   1773   1785   1787     1  0.0000000  0.6508444  3
   1769   1776   1779   1780     1  0.0000000  0.6508444  3
   1769   1776   1779   1781     1  0.0000000  0.6508444  3
   1770   1769   1773   1774     1  0.0000000  1.2552000  3
   1770   1769   1773   1775     1  0.0000000  1.2552000  3
   1770   1769   1776   1777     1  0.0000000  1.2552000  3
   1770   1769   1776   1778     1  0.0000000  1.2552000  3
   1770   1782   1794   1795     1  0.0000000  0.6508444  3
   1770   1782   1794   1796     1  0.0000000  0.6508444  3
   1771   1770   1769   1773     1  0.0000000  1.2552000  3
   1771   1770   1769   1776     1  0.0000000  1.2552000  3
   1771   1770   1782   1794     1  0.0000000  0.6508444  3
   1771   1770   1782   1783     1  0.0000000  0.6508444  3
   1771   1770   1782   1784     1  0.0000000  0.6508444  3
   1772   1770   1769   1773     1  0.0000000  1.2552000  3
   1772   1770   1769   1776     1  0.0000000  1.2552000  3
   1772   1770   1782   1794     1  0.0000000  0.6508444  3
   1772   1770   1782   1783     1  0.0000000  0.6508444  3
   1772   1770   1782   1784     1  0.0000000  0.6508444  3
   1773   1769   1776   1777     1  0.0000000  1.2552000  3
   1773   1769   1776   1778     1  0.0000000  1.2552000  3
   1773   1785   1791   1792     1  0.0000000  0.6508444  3
   1773   1785   1791   1793     1  0.0000000  0.6508444  3
   1774   1773   1769   1776     1  0.0000000  1.2552000  3
   1774   1773   1785   1791     1  0.0000000  0.6508444  3
   1774   1773   1785   1786     1  0.0000000  0.6508444  3
   1774   1773   1785   1787     1  0.0000000  0.6508444  3
   1775   1773   1769   1776     1  0.0000000  1.2552000  3
   1775   1773   1785   1791     1  0.0000000  0.6508444  3
   1775   1773   1785   1786     1  0.0000000  0.6508444  3
   1775   1773   1785   1787     1  0.0000000  0.6508444  3
   1776   1779   1788   1789     1  0.0000000  0.6508444  3
   1776   1779   1788   1790     1  0.0000000  0.6508444  3
   1777   1776   1779   1788     1  0.0000000  0.6508444  3
   1777   1776   1779   1780     1  0.0000000  0.6508444  3
   1777   1776   1779   1781     1  0.0000000  0.6508444  3
   1778   1776   1779   1788     1  0.0000000  0.6508444  3
   1778   1776   1779   1780     1  0.0000000  0.6508444  3
   1778   1776   1779   1781     1  0.0000000  0.6508444  3
   1780   1779   1788   1797     1  0.0000000  1.0460000  1
   1780   1779   1788   1797     1  0.0000000  0.0000000  3
   1780   1779   1788   1789     1  0.0000000  0.6508444  3
   1780   1779   1788   1790     1  0.0000000  0.6508444  3
   1781   1779   1788   1797     1  0.0000000  1.0460000  1
   1781   1779   1788   1797     1  0.0000000  0.0000000  3
   1781   1779   1788   1789     1  0.0000000  0.6508444  3
   1781   1779   1788   1790     1  0.0000000  0.6508444  3
   1783   1782   1794   3781     1  0.0000000  1.0460000  1
   1783   1782   1794   3781     1  0.0000000  0.0000000  3
   1783   1782   1794   1795     1  0.0000000  0.6508444  3
   1783   1782   1794   1796     1  0.0000000  0.6508444  3
   1784   1782   1794   3781     1  0.0000000  1.0460000  1
   1784   1782   1794   3781     1  0.0000000  0.0000000  3
   1784   1782   1794   1795     1  0.0000000  0.6508444  3
   1784   1782   1794   1796     1  0.0000000  0.6508444  3
   1786   1785   1791   3750     1  0.0000000  1.0460000  1
   1786   1785   1791   3750     1  0.0000000  0.0000000  3
   1786   1785   1791   1792     1  0.0000000  0.6508444  3
   1786   1785   1791   1793     1  0.0000000  0.6508444  3
   1787   1785   1791   3750     1  0.0000000  1.0460000  1
   1787   1785   1791   3750     1  0.0000000  0.0000000  3
   1787   1785   1791   1792     1  0.0000000  0.6508444  3
   1787   1785   1791   1793     1  0.0000000  0.6508444  3
   1791   3750   3720   3721     1  0.0000000  1.6038667  3
   1791   3750   3720   3722     1  0.0000000  1.6038667  3
   1792   1791   3750   3720     1  0.0000000  1.6038667  3
   1793   1791   3750   3720     1  0.0000000  1.6038667  3
   1794   3781   3751   3752     1  0.0000000  1.6038667  3
   1794   3781   3751   3753     1  0.0000000  1.6038667  3
   1795   1794   3781   3751     1  0.0000000  1.6038667  3
   1796   1794   3781   3751     1  0.0000000  1.6038667  3
   1798   1801   1804   1805     1  0.0000000  0.6508444  3
   1798   1801   1804   1806     1  0.0000000  0.6508444  3
   1799   1798   1801   1804     1  0.0000000  0.6508444  3
   1799   1798   1801   1802     1  0.0000000  0.6508444  3
   1799   1798   1801   1803     1  0.0000000  0.6508444  3
   1800   1798   1801   1804     1  0.0000000  0.6508444  3
   1800   1798   1801   1802     1  0.0000000  0.6508444  3
   1800   1798   1801   1803     1  0.0000000  0.6508444  3
   1802   1801   1798   1828     1  0.0000000  1.0460000  1
   1802   1801   1798   1828     1  0.0000000  0.0000000  3
   1802   1801   1804   1807     1  0.0000000  0.6508444  3
   1802   1801   1804   1805     1  0.0000000  0.6508444  3
   1802   1801   1804   1806     1  0.0000000  0.6508444  3
   1803   1801   1798   1828     1  0.0000000  1.0460000  1
   1803   1801   1798   1828     1  0.0000000  0.0000000  3
   1803   1801   1804   1807     1  0.0000000  0.6508444  3
   1803   1801   1804   1805     1  0.0000000  0.6508444  3
   1803   1801   1804   1806     1  0.0000000  0.6508444  3
   1804   1807   1808   1809     1  0.0000000  1.2552000  3
   1804   1807   1808   1810     1  0.0000000  1.2552000  3
   1804   1807   1818   1819     1  0.0000000  1.2552000  3
   1804   1807   1818   1820     1  0.0000000  1.2552000  3
   1805   1804   1807   1808     1  0.0000000  1.2552000  3
   1805   1804   1807   1818     1  0.0000000  1.2552000  3
   1806   1804   1807   1808     1  0.0000000  1.2552000  3
   1806   1804   1807   1818     1  0.0000000  1.2552000  3
   1807   1808   1811   1812     1  0.0000000  0.6508444  3
   1807   1808   1811   1813     1  0.0000000  0.6508444  3
   1807   1818   1821   1822     1  0.0000000  0.6508444  3
   1807   1818   1821   1823     1  0.0000000  0.6508444  3
   1808   1807   1818   1819     1  0.0000000  1.2552000  3
   1808   1807   1818   1820     1  0.0000000  1.2552000  3
   1809   1808   1807   1818     1  0.0000000  1.2552000  3
   1809   1808   1811   1814     1  0.0000000  0.6508444  3
   1809   1808   1811   1812     1  0.0000000  0.6508444  3
   1809   1808   1811   1813     1  0.0000000  0.6508444  3
   1810   1808   1807   1818     1  0.0000000  1.2552000  3
   1810   1808   1811   1814     1  0.0000000  0.6508444  3
   1810   1808   1811   1812     1  0.0000000  0.6508444  3
   1810   1808   1811   1813     1  0.0000000  0.6508444  3
   1811   1814   1816   1817     1  180.0000771  9.6232000  2
   1812   1811   1814   1815     1  0.0000000  3.3472000  1
   1812   1811   1814   1815     1  0.0000000  0.0000000  2
   1812   1811   1814   1815     1  180.0000771  0.3347200  3
   1812   1811   1814   1816     1  180.0000771  0.0000000  2
   1813   1811   1814   1815     1  0.0000000  3.3472000  1
   1813   1811   1814   1815     1  0.0000000  0.0000000  2
   1813   1811   1814   1815     1  180.0000771  0.3347200  3
   1813   1811   1814   1816     1  180.0000771  0.0000000  2
   1815   1814   1816   1817     1  0.0000000  7.9496000  1
   1815   1814   1816   1817     1  180.0000771  9.6232000  2
   1819   1818   1821   1824     1  0.0000000  0.6508444  3
   1819   1818   1821   1822     1  0.0000000  0.6508444  3
   1819   1818   1821   1823     1  0.0000000  0.6508444  3
   1820   1818   1821   1824     1  0.0000000  0.6508444  3
   1820   1818   1821   1822     1  0.0000000  0.6508444  3
   1820   1818   1821   1823     1  0.0000000  0.6508444  3
   1821   1824   1826   1827     1  180.0000771  9.6232000  2
   1822   1821   1824   1825     1  0.0000000  3.3472000  1
   1822   1821   1824   1825     1  0.0000000  0.0000000  2
   1822   1821   1824   1825     1  180.0000771  0.3347200  3
   1822   1821   1824   1826     1  180.0000771  0.0000000  2
   1823   1821   1824   1825     1  0.0000000  3.3472000  1
   1823   1821   1824   1825     1  0.0000000  0.0000000  2
   1823   1821   1824   1825     1  180.0000771  0.3347200  3
   1823   1821   1824   1826     1  180.0000771  0.0000000  2
   1825   1824   1826   1827     1  0.0000000  7.9496000  1
   1825   1824   1826   1827     1  180.0000771  9.6232000  2
   1829   1832   1835   1836     1  0.0000000  0.6508444  3
   1829   1832   1835   1837     1  0.0000000  0.6508444  3
   1830   1829   1832   1835     1  0.0000000  0.6508444  3
   1830   1829   1832   1833     1  0.0000000  0.6508444  3
   1830   1829   1832   1834     1  0.0000000  0.6508444  3
   1831   1829   1832   1835     1  0.0000000  0.6508444  3
   1831   1829   1832   1833     1  0.0000000  0.6508444  3
   1831   1829   1832   1834     1  0.0000000  0.6508444  3
   1833   1832   1835   1838     1  0.0000000  0.6508444  3
   1833   1832   1835   1836     1  0.0000000  0.6508444  3
   1833   1832   1835   1837     1  0.0000000  0.6508444  3
   1833   1832   1829   1859     1  0.0000000  1.0460000  1
   1833   1832   1829   1859     1  0.0000000  0.0000000  3
   1834   1832   1835   1838     1  0.0000000  0.6508444  3
   1834   1832   1835   1836     1  0.0000000  0.6508444  3
   1834   1832   1835   1837     1  0.0000000  0.6508444  3
   1834   1832   1829   1859     1  0.0000000  1.0460000  1
   1834   1832   1829   1859     1  0.0000000  0.0000000  3
   1835   1838   1839   1840     1  0.0000000  1.2552000  3
   1835   1838   1839   1841     1  0.0000000  1.2552000  3
   1835   1838   1849   1850     1  0.0000000  1.2552000  3
   1835   1838   1849   1851     1  0.0000000  1.2552000  3
   1836   1835   1838   1839     1  0.0000000  1.2552000  3
   1836   1835   1838   1849     1  0.0000000  1.2552000  3
   1837   1835   1838   1839     1  0.0000000  1.2552000  3
   1837   1835   1838   1849     1  0.0000000  1.2552000  3
   1838   1839   1842   1843     1  0.0000000  0.6508444  3
   1838   1839   1842   1844     1  0.0000000  0.6508444  3
   1838   1849   1852   1853     1  0.0000000  0.6508444  3
   1838   1849   1852   1854     1  0.0000000  0.6508444  3
   1839   1838   1849   1850     1  0.0000000  1.2552000  3
   1839   1838   1849   1851     1  0.0000000  1.2552000  3
   1840   1839   1842   1845     1  0.0000000  0.6508444  3
   1840   1839   1842   1843     1  0.0000000  0.6508444  3
   1840   1839   1842   1844     1  0.0000000  0.6508444  3
   1840   1839   1838   1849     1  0.0000000  1.2552000  3
   1841   1839   1842   1845     1  0.0000000  0.6508444  3
   1841   1839   1842   1843     1  0.0000000  0.6508444  3
   1841   1839   1842   1844     1  0.0000000  0.6508444  3
   1841   1839   1838   1849     1  0.0000000  1.2552000  3
   1842   1845   1847   1848     1  180.0000771  9.6232000  2
   1843   1842   1845   1846     1  0.0000000  3.3472000  1
   1843   1842   1845   1846     1  0.0000000  0.0000000  2
   1843   1842   1845   1846     1  180.0000771  0.3347200  3
   1843   1842   1845   1847     1  180.0000771  0.0000000  2
   1844   1842   1845   1846     1  0.0000000  3.3472000  1
   1844   1842   1845   1846     1  0.0000000  0.0000000  2
   1844   1842   1845   1846     1  180.0000771  0.3347200  3
   1844   1842   1845   1847     1  180.0000771  0.0000000  2
   1846   1845   1847   1848     1  0.0000000  7.9496000  1
   1846   1845   1847   1848     1  180.0000771  9.6232000  2
   1850   1849   1852   1855     1  0.0000000  0.6508444  3
   1850   1849   1852   1853     1  0.0000000  0.6508444  3
   1850   1849   1852   1854     1  0.0000000  0.6508444  3
   1851   1849   1852   1855     1  0.0000000  0.6508444  3
   1851   1849   1852   1853     1  0.0000000  0.6508444  3
   1851   1849   1852   1854     1  0.0000000  0.6508444  3
   1852   1855   1857   1858     1  180.0000771  9.6232000  2
   1853   1852   1855   1856     1  0.0000000  3.3472000  1
   1853   1852   1855   1856     1  0.0000000  0.0000000  2
   1853   1852   1855   1856     1  180.0000771  0.3347200  3
   1853   1852   1855   1857     1  180.0000771  0.0000000  2
   1854   1852   1855   1856     1  0.0000000  3.3472000  1
   1854   1852   1855   1856     1  0.0000000  0.0000000  2
   1854   1852   1855   1856     1  180.0000771  0.3347200  3
   1854   1852   1855   1857     1  180.0000771  0.0000000  2
   1856   1855   1857   1858     1  0.0000000  7.9496000  1
   1856   1855   1857   1858     1  180.0000771  9.6232000  2
   1860   1863   1866   1867     1  0.0000000  0.6508444  3
   1860   1863   1866   1868     1  0.0000000  0.6508444  3
   1861   1860   1863   1866     1  0.0000000  0.6508444  3
   1861   1860   1863   1864     1  0.0000000  0.6508444  3
   1861   1860   1863   1865     1  0.0000000  0.6508444  3
   1862   1860   1863   1866     1  0.0000000  0.6508444  3
   1862   1860   1863   1864     1  0.0000000  0.6508444  3
   1862   1860   1863   1865     1  0.0000000  0.6508444  3
   1864   1863   1860   1890     1  0.0000000  1.0460000  1
   1864   1863   1860   1890     1  0.0000000  0.0000000  3
   1864   1863   1866   1869     1  0.0000000  0.6508444  3
   1864   1863   1866   1867     1  0.0000000  0.6508444  3
   1864   1863   1866   1868     1  0.0000000  0.6508444  3
   1865   1863   1860   1890     1  0.0000000  1.0460000  1
   1865   1863   1860   1890     1  0.0000000  0.0000000  3
   1865   1863   1866   1869     1  0.0000000  0.6508444  3
   1865   1863   1866   1867     1  0.0000000  0.6508444  3
   1865   1863   1866   1868     1  0.0000000  0.6508444  3
   1866   1869   1870   1871     1  0.0000000  1.2552000  3
   1866   1869   1870   1872     1  0.0000000  1.2552000  3
   1866   1869   1880   1881     1  0.0000000  1.2552000  3
   1866   1869   1880   1882     1  0.0000000  1.2552000  3
   1867   1866   1869   1870     1  0.0000000  1.2552000  3
   1867   1866   1869   1880     1  0.0000000  1.2552000  3
   1868   1866   1869   1870     1  0.0000000  1.2552000  3
   1868   1866   1869   1880     1  0.0000000  1.2552000  3
   1869   1870   1873   1874     1  0.0000000  0.6508444  3
   1869   1870   1873   1875     1  0.0000000  0.6508444  3
   1869   1880   1883   1884     1  0.0000000  0.6508444  3
   1869   1880   1883   1885     1  0.0000000  0.6508444  3
   1870   1869   1880   1881     1  0.0000000  1.2552000  3
   1870   1869   1880   1882     1  0.0000000  1.2552000  3
   1871   1870   1869   1880     1  0.0000000  1.2552000  3
   1871   1870   1873   1876     1  0.0000000  0.6508444  3
   1871   1870   1873   1874     1  0.0000000  0.6508444  3
   1871   1870   1873   1875     1  0.0000000  0.6508444  3
   1872   1870   1869   1880     1  0.0000000  1.2552000  3
   1872   1870   1873   1876     1  0.0000000  0.6508444  3
   1872   1870   1873   1874     1  0.0000000  0.6508444  3
   1872   1870   1873   1875     1  0.0000000  0.6508444  3
   1873   1876   1878   1879     1  180.0000771  9.6232000  2
   1874   1873   1876   1877     1  0.0000000  3.3472000  1
   1874   1873   1876   1877     1  0.0000000  0.0000000  2
   1874   1873   1876   1877     1  180.0000771  0.3347200  3
   1874   1873   1876   1878     1  180.0000771  0.0000000  2
   1875   1873   1876   1877     1  0.0000000  3.3472000  1
   1875   1873   1876   1877     1  0.0000000  0.0000000  2
   1875   1873   1876   1877     1  180.0000771  0.3347200  3
   1875   1873   1876   1878     1  180.0000771  0.0000000  2
   1877   1876   1878   1879     1  0.0000000  7.9496000  1
   1877   1876   1878   1879     1  180.0000771  9.6232000  2
   1881   1880   1883   1886     1  0.0000000  0.6508444  3
   1881   1880   1883   1884     1  0.0000000  0.6508444  3
   1881   1880   1883   1885     1  0.0000000  0.6508444  3
   1882   1880   1883   1886     1  0.0000000  0.6508444  3
   1882   1880   1883   1884     1  0.0000000  0.6508444  3
   1882   1880   1883   1885     1  0.0000000  0.6508444  3
   1883   1886   1888   1889     1  180.0000771  9.6232000  2
   1884   1883   1886   1887     1  0.0000000  3.3472000  1
   1884   1883   1886   1887     1  0.0000000  0.0000000  2
   1884   1883   1886   1887     1  180.0000771  0.3347200  3
   1884   1883   1886   1888     1  180.0000771  0.0000000  2
   1885   1883   1886   1887     1  0.0000000  3.3472000  1
   1885   1883   1886   1887     1  0.0000000  0.0000000  2
   1885   1883   1886   1887     1  180.0000771  0.3347200  3
   1885   1883   1886   1888     1  180.0000771  0.0000000  2
   1887   1886   1888   1889     1  0.0000000  7.9496000  1
   1887   1886   1888   1889     1  180.0000771  9.6232000  2
   1891   1894   1897   1898     1  0.0000000  0.6508444  3
   1891   1894   1897   1899     1  0.0000000  0.6508444  3
   1892   1891   1894   1897     1  0.0000000  0.6508444  3
   1892   1891   1894   1895     1  0.0000000  0.6508444  3
   1892   1891   1894   1896     1  0.0000000  0.6508444  3
   1893   1891   1894   1897     1  0.0000000  0.6508444  3
   1893   1891   1894   1895     1  0.0000000  0.6508444  3
   1893   1891   1894   1896     1  0.0000000  0.6508444  3
   1895   1894   1897   1900     1  0.0000000  0.6508444  3
   1895   1894   1897   1898     1  0.0000000  0.6508444  3
   1895   1894   1897   1899     1  0.0000000  0.6508444  3
   1895   1894   1891   1921     1  0.0000000  1.0460000  1
   1895   1894   1891   1921     1  0.0000000  0.0000000  3
   1896   1894   1897   1900     1  0.0000000  0.6508444  3
   1896   1894   1897   1898     1  0.0000000  0.6508444  3
   1896   1894   1897   1899     1  0.0000000  0.6508444  3
   1896   1894   1891   1921     1  0.0000000  1.0460000  1
   1896   1894   1891   1921     1  0.0000000  0.0000000  3
   1897   1900   1901   1902     1  0.0000000  1.2552000  3
   1897   1900   1901   1903     1  0.0000000  1.2552000  3
   1897   1900   1911   1912     1  0.0000000  1.2552000  3
   1897   1900   1911   1913     1  0.0000000  1.2552000  3
   1898   1897   1900   1901     1  0.0000000  1.2552000  3
   1898   1897   1900   1911     1  0.0000000  1.2552000  3
   1899   1897   1900   1901     1  0.0000000  1.2552000  3
   1899   1897   1900   1911     1  0.0000000  1.2552000  3
   1900   1901   1904   1905     1  0.0000000  0.6508444  3
   1900   1901   1904   1906     1  0.0000000  0.6508444  3
   1900   1911   1914   1915     1  0.0000000  0.6508444  3
   1900   1911   1914   1916     1  0.0000000  0.6508444  3
   1901   1900   1911   1912     1  0.0000000  1.2552000  3
   1901   1900   1911   1913     1  0.0000000  1.2552000  3
   1902   1901   1904   1907     1  0.0000000  0.6508444  3
   1902   1901   1904   1905     1  0.0000000  0.6508444  3
   1902   1901   1904   1906     1  0.0000000  0.6508444  3
   1902   1901   1900   1911     1  0.0000000  1.2552000  3
   1903   1901   1904   1907     1  0.0000000  0.6508444  3
   1903   1901   1904   1905     1  0.0000000  0.6508444  3
   1903   1901   1904   1906     1  0.0000000  0.6508444  3
   1903   1901   1900   1911     1  0.0000000  1.2552000  3
   1904   1907   1909   1910     1  180.0000771  9.6232000  2
   1905   1904   1907   1908     1  0.0000000  3.3472000  1
   1905   1904   1907   1908     1  0.0000000  0.0000000  2
   1905   1904   1907   1908     1  180.0000771  0.3347200  3
   1905   1904   1907   1909     1  180.0000771  0.0000000  2
   1906   1904   1907   1908     1  0.0000000  3.3472000  1
   1906   1904   1907   1908     1  0.0000000  0.0000000  2
   1906   1904   1907   1908     1  180.0000771  0.3347200  3
   1906   1904   1907   1909     1  180.0000771  0.0000000  2
   1908   1907   1909   1910     1  0.0000000  7.9496000  1
   1908   1907   1909   1910     1  180.0000771  9.6232000  2
   1912   1911   1914   1917     1  0.0000000  0.6508444  3
   1912   1911   1914   1915     1  0.0000000  0.6508444  3
   1912   1911   1914   1916     1  0.0000000  0.6508444  3
   1913   1911   1914   1917     1  0.0000000  0.6508444  3
   1913   1911   1914   1915     1  0.0000000  0.6508444  3
   1913   1911   1914   1916     1  0.0000000  0.6508444  3
   1914   1917   1919   1920     1  180.0000771  9.6232000  2
   1915   1914   1917   1918     1  0.0000000  3.3472000  1
   1915   1914   1917   1918     1  0.0000000  0.0000000  2
   1915   1914   1917   1918     1  180.0000771  0.3347200  3
   1915   1914   1917   1919     1  180.0000771  0.0000000  2
   1916   1914   1917   1918     1  0.0000000  3.3472000  1
   1916   1914   1917   1918     1  0.0000000  0.0000000  2
   1916   1914   1917   1918     1  180.0000771  0.3347200  3
   1916   1914   1917   1919     1  180.0000771  0.0000000  2
   1918   1917   1919   1920     1  0.0000000  7.9496000  1
   1918   1917   1919   1920     1  180.0000771  9.6232000  2
   1922   1925   1928   1929     1  0.0000000  0.6508444  3
   1922   1925   1928   1930     1  0.0000000  0.6508444  3
   1923   1922   1925   1928     1  0.0000000  0.6508444  3
   1923   1922   1925   1926     1  0.0000000  0.6508444  3
   1923   1922   1925   1927     1  0.0000000  0.6508444  3
   1924   1922   1925   1928     1  0.0000000  0.6508444  3
   1924   1922   1925   1926     1  0.0000000  0.6508444  3
   1924   1922   1925   1927     1  0.0000000  0.6508444  3
   1926   1925   1922   1952     1  0.0000000  1.0460000  1
   1926   1925   1922   1952     1  0.0000000  0.0000000  3
   1926   1925   1928   1931     1  0.0000000  0.6508444  3
   1926   1925   1928   1929     1  0.0000000  0.6508444  3
   1926   1925   1928   1930     1  0.0000000  0.6508444  3
   1927   1925   1922   1952     1  0.0000000  1.0460000  1
   1927   1925   1922   1952     1  0.0000000  0.0000000  3
   1927   1925   1928   1931     1  0.0000000  0.6508444  3
   1927   1925   1928   1929     1  0.0000000  0.6508444  3
   1927   1925   1928   1930     1  0.0000000  0.6508444  3
   1928   1931   1932   1933     1  0.0000000  1.2552000  3
   1928   1931   1932   1934     1  0.0000000  1.2552000  3
   1928   1931   1942   1943     1  0.0000000  1.2552000  3
   1928   1931   1942   1944     1  0.0000000  1.2552000  3
   1929   1928   1931   1932     1  0.0000000  1.2552000  3
   1929   1928   1931   1942     1  0.0000000  1.2552000  3
   1930   1928   1931   1932     1  0.0000000  1.2552000  3
   1930   1928   1931   1942     1  0.0000000  1.2552000  3
   1931   1932   1935   1936     1  0.0000000  0.6508444  3
   1931   1932   1935   1937     1  0.0000000  0.6508444  3
   1931   1942   1945   1946     1  0.0000000  0.6508444  3
   1931   1942   1945   1947     1  0.0000000  0.6508444  3
   1932   1931   1942   1943     1  0.0000000  1.2552000  3
   1932   1931   1942   1944     1  0.0000000  1.2552000  3
   1933   1932   1931   1942     1  0.0000000  1.2552000  3
   1933   1932   1935   1938     1  0.0000000  0.6508444  3
   1933   1932   1935   1936     1  0.0000000  0.6508444  3
   1933   1932   1935   1937     1  0.0000000  0.6508444  3
   1934   1932   1931   1942     1  0.0000000  1.2552000  3
   1934   1932   1935   1938     1  0.0000000  0.6508444  3
   1934   1932   1935   1936     1  0.0000000  0.6508444  3
   1934   1932   1935   1937     1  0.0000000  0.6508444  3
   1935   1938   1940   1941     1  180.0000771  9.6232000  2
   1936   1935   1938   1939     1  0.0000000  3.3472000  1
   1936   1935   1938   1939     1  0.0000000  0.0000000  2
   1936   1935   1938   1939     1  180.0000771  0.3347200  3
   1936   1935   1938   1940     1  180.0000771  0.0000000  2
   1937   1935   1938   1939     1  0.0000000  3.3472000  1
   1937   1935   1938   1939     1  0.0000000  0.0000000  2
   1937   1935   1938   1939     1  180.0000771  0.3347200  3
   1937   1935   1938   1940     1  180.0000771  0.0000000  2
   1939   1938   1940   1941     1  0.0000000  7.9496000  1
   1939   1938   1940   1941     1  180.0000771  9.6232000  2
   1943   1942   1945   1948     1  0.0000000  0.6508444  3
   1943   1942   1945   1946     1  0.0000000  0.6508444  3
   1943   1942   1945   1947     1  0.0000000  0.6508444  3
   1944   1942   1945   1948     1  0.0000000  0.6508444  3
   1944   1942   1945   1946     1  0.0000000  0.6508444  3
   1944   1942   1945   1947     1  0.0000000  0.6508444  3
   1945   1948   1950   1951     1  180.0000771  9.6232000  2
   1946   1945   1948   1949     1  0.0000000  3.3472000  1
   1946   1945   1948   1949     1  0.0000000  0.0000000  2
   1946   1945   1948   1949     1  180.0000771  0.3347200  3
   1946   1945   1948   1950     1  180.0000771  0.0000000  2
   1947   1945   1948   1949     1  0.0000000  3.3472000  1
   1947   1945   1948   1949     1  0.0000000  0.0000000  2
   1947   1945   1948   1949     1  180.0000771  0.3347200  3
   1947   1945   1948   1950     1  180.0000771  0.0000000  2
   1949   1948   1950   1951     1  0.0000000  7.9496000  1
   1949   1948   1950   1951     1  180.0000771  9.6232000  2
   1953   1956   1959   1960     1  0.0000000  0.6508444  3
   1953   1956   1959   1961     1  0.0000000  0.6508444  3
   1954   1953   1956   1959     1  0.0000000  0.6508444  3
   1954   1953   1956   1957     1  0.0000000  0.6508444  3
   1954   1953   1956   1958     1  0.0000000  0.6508444  3
   1955   1953   1956   1959     1  0.0000000  0.6508444  3
   1955   1953   1956   1957     1  0.0000000  0.6508444  3
   1955   1953   1956   1958     1  0.0000000  0.6508444  3
   1957   1956   1959   1962     1  0.0000000  0.6508444  3
   1957   1956   1959   1960     1  0.0000000  0.6508444  3
   1957   1956   1959   1961     1  0.0000000  0.6508444  3
   1957   1956   1953   1983     1  0.0000000  1.0460000  1
   1957   1956   1953   1983     1  0.0000000  0.0000000  3
   1958   1956   1959   1962     1  0.0000000  0.6508444  3
   1958   1956   1959   1960     1  0.0000000  0.6508444  3
   1958   1956   1959   1961     1  0.0000000  0.6508444  3
   1958   1956   1953   1983     1  0.0000000  1.0460000  1
   1958   1956   1953   1983     1  0.0000000  0.0000000  3
   1959   1962   1963   1964     1  0.0000000  1.2552000  3
   1959   1962   1963   1965     1  0.0000000  1.2552000  3
   1959   1962   1973   1974     1  0.0000000  1.2552000  3
   1959   1962   1973   1975     1  0.0000000  1.2552000  3
   1960   1959   1962   1963     1  0.0000000  1.2552000  3
   1960   1959   1962   1973     1  0.0000000  1.2552000  3
   1961   1959   1962   1963     1  0.0000000  1.2552000  3
   1961   1959   1962   1973     1  0.0000000  1.2552000  3
   1962   1963   1966   1967     1  0.0000000  0.6508444  3
   1962   1963   1966   1968     1  0.0000000  0.6508444  3
   1962   1973   1976   1977     1  0.0000000  0.6508444  3
   1962   1973   1976   1978     1  0.0000000  0.6508444  3
   1963   1962   1973   1974     1  0.0000000  1.2552000  3
   1963   1962   1973   1975     1  0.0000000  1.2552000  3
   1964   1963   1966   1969     1  0.0000000  0.6508444  3
   1964   1963   1966   1967     1  0.0000000  0.6508444  3
   1964   1963   1966   1968     1  0.0000000  0.6508444  3
   1964   1963   1962   1973     1  0.0000000  1.2552000  3
   1965   1963   1966   1969     1  0.0000000  0.6508444  3
   1965   1963   1966   1967     1  0.0000000  0.6508444  3
   1965   1963   1966   1968     1  0.0000000  0.6508444  3
   1965   1963   1962   1973     1  0.0000000  1.2552000  3
   1966   1969   1971   1972     1  180.0000771  9.6232000  2
   1967   1966   1969   1970     1  0.0000000  3.3472000  1
   1967   1966   1969   1970     1  0.0000000  0.0000000  2
   1967   1966   1969   1970     1  180.0000771  0.3347200  3
   1967   1966   1969   1971     1  180.0000771  0.0000000  2
   1968   1966   1969   1970     1  0.0000000  3.3472000  1
   1968   1966   1969   1970     1  0.0000000  0.0000000  2
   1968   1966   1969   1970     1  180.0000771  0.3347200  3
   1968   1966   1969   1971     1  180.0000771  0.0000000  2
   1970   1969   1971   1972     1  0.0000000  7.9496000  1
   1970   1969   1971   1972     1  180.0000771  9.6232000  2
   1974   1973   1976   1979     1  0.0000000  0.6508444  3
   1974   1973   1976   1977     1  0.0000000  0.6508444  3
   1974   1973   1976   1978     1  0.0000000  0.6508444  3
   1975   1973   1976   1979     1  0.0000000  0.6508444  3
   1975   1973   1976   1977     1  0.0000000  0.6508444  3
   1975   1973   1976   1978     1  0.0000000  0.6508444  3
   1976   1979   1981   1982     1  180.0000771  9.6232000  2
   1977   1976   1979   1980     1  0.0000000  3.3472000  1
   1977   1976   1979   1980     1  0.0000000  0.0000000  2
   1977   1976   1979   1980     1  180.0000771  0.3347200  3
   1977   1976   1979   1981     1  180.0000771  0.0000000  2
   1978   1976   1979   1980     1  0.0000000  3.3472000  1
   1978   1976   1979   1980     1  0.0000000  0.0000000  2
   1978   1976   1979   1980     1  180.0000771  0.3347200  3
   1978   1976   1979   1981     1  180.0000771  0.0000000  2
   1980   1979   1981   1982     1  0.0000000  7.9496000  1
   1980   1979   1981   1982     1  180.0000771  9.6232000  2
   1984   1987   1990   1991     1  0.0000000  0.6508444  3
   1984   1987   1990   1992     1  0.0000000  0.6508444  3
   1985   1984   1987   1990     1  0.0000000  0.6508444  3
   1985   1984   1987   1988     1  0.0000000  0.6508444  3
   1985   1984   1987   1989     1  0.0000000  0.6508444  3
   1986   1984   1987   1990     1  0.0000000  0.6508444  3
   1986   1984   1987   1988     1  0.0000000  0.6508444  3
   1986   1984   1987   1989     1  0.0000000  0.6508444  3
   1988   1987   1984   2014     1  0.0000000  1.0460000  1
   1988   1987   1984   2014     1  0.0000000  0.0000000  3
   1988   1987   1990   1993     1  0.0000000  0.6508444  3
   1988   1987   1990   1991     1  0.0000000  0.6508444  3
   1988   1987   1990   1992     1  0.0000000  0.6508444  3
   1989   1987   1984   2014     1  0.0000000  1.0460000  1
   1989   1987   1984   2014     1  0.0000000  0.0000000  3
   1989   1987   1990   1993     1  0.0000000  0.6508444  3
   1989   1987   1990   1991     1  0.0000000  0.6508444  3
   1989   1987   1990   1992     1  0.0000000  0.6508444  3
   1990   1993   1994   1995     1  0.0000000  1.2552000  3
   1990   1993   1994   1996     1  0.0000000  1.2552000  3
   1990   1993   2004   2005     1  0.0000000  1.2552000  3
   1990   1993   2004   2006     1  0.0000000  1.2552000  3
   1991   1990   1993   1994     1  0.0000000  1.2552000  3
   1991   1990   1993   2004     1  0.0000000  1.2552000  3
   1992   1990   1993   1994     1  0.0000000  1.2552000  3
   1992   1990   1993   2004     1  0.0000000  1.2552000  3
   1993   1994   1997   1998     1  0.0000000  0.6508444  3
   1993   1994   1997   1999     1  0.0000000  0.6508444  3
   1993   2004   2007   2008     1  0.0000000  0.6508444  3
   1993   2004   2007   2009     1  0.0000000  0.6508444  3
   1994   1993   2004   2005     1  0.0000000  1.2552000  3
   1994   1993   2004   2006     1  0.0000000  1.2552000  3
   1995   1994   1993   2004     1  0.0000000  1.2552000  3
   1995   1994   1997   2000     1  0.0000000  0.6508444  3
   1995   1994   1997   1998     1  0.0000000  0.6508444  3
   1995   1994   1997   1999     1  0.0000000  0.6508444  3
   1996   1994   1993   2004     1  0.0000000  1.2552000  3
   1996   1994   1997   2000     1  0.0000000  0.6508444  3
   1996   1994   1997   1998     1  0.0000000  0.6508444  3
   1996   1994   1997   1999     1  0.0000000  0.6508444  3
   1997   2000   2002   2003     1  180.0000771  9.6232000  2
   1998   1997   2000   2001     1  0.0000000  3.3472000  1
   1998   1997   2000   2001     1  0.0000000  0.0000000  2
   1998   1997   2000   2001     1  180.0000771  0.3347200  3
   1998   1997   2000   2002     1  180.0000771  0.0000000  2
   1999   1997   2000   2001     1  0.0000000  3.3472000  1
   1999   1997   2000   2001     1  0.0000000  0.0000000  2
   1999   1997   2000   2001     1  180.0000771  0.3347200  3
   1999   1997   2000   2002     1  180.0000771  0.0000000  2
   2001   2000   2002   2003     1  0.0000000  7.9496000  1
   2001   2000   2002   2003     1  180.0000771  9.6232000  2
   2005   2004   2007   2010     1  0.0000000  0.6508444  3
   2005   2004   2007   2008     1  0.0000000  0.6508444  3
   2005   2004   2007   2009     1  0.0000000  0.6508444  3
   2006   2004   2007   2010     1  0.0000000  0.6508444  3
   2006   2004   2007   2008     1  0.0000000  0.6508444  3
   2006   2004   2007   2009     1  0.0000000  0.6508444  3
   2007   2010   2012   2013     1  180.0000771  9.6232000  2
   2008   2007   2010   2011     1  0.0000000  3.3472000  1
   2008   2007   2010   2011     1  0.0000000  0.0000000  2
   2008   2007   2010   2011     1  180.0000771  0.3347200  3
   2008   2007   2010   2012     1  180.0000771  0.0000000  2
   2009   2007   2010   2011     1  0.0000000  3.3472000  1
   2009   2007   2010   2011     1  0.0000000  0.0000000  2
   2009   2007   2010   2011     1  180.0000771  0.3347200  3
   2009   2007   2010   2012     1  180.0000771  0.0000000  2
   2011   2010   2012   2013     1  0.0000000  7.9496000  1
   2011   2010   2012   2013     1  180.0000771  9.6232000  2
   2015   2018   2021   2022     1  0.0000000  0.6508444  3
   2015   2018   2021   2023     1  0.0000000  0.6508444  3
   2016   2015   2018   2021     1  0.0000000  0.6508444  3
   2016   2015   2018   2019     1  0.0000000  0.6508444  3
   2016   2015   2018   2020     1  0.0000000  0.6508444  3
   2017   2015   2018   2021     1  0.0000000  0.6508444  3
   2017   2015   2018   2019     1  0.0000000  0.6508444  3
   2017   2015   2018   2020     1  0.0000000  0.6508444  3
   2019   2018   2021   2024     1  0.0000000  0.6508444  3
   2019   2018   2021   2022     1  0.0000000  0.6508444  3
   2019   2018   2021   2023     1  0.0000000  0.6508444  3
   2019   2018   2015   2045     1  0.0000000  1.0460000  1
   2019   2018   2015   2045     1  0.0000000  0.0000000  3
   2020   2018   2021   2024     1  0.0000000  0.6508444  3
   2020   2018   2021   2022     1  0.0000000  0.6508444  3
   2020   2018   2021   2023     1  0.0000000  0.6508444  3
   2020   2018   2015   2045     1  0.0000000  1.0460000  1
   2020   2018   2015   2045     1  0.0000000  0.0000000  3
   2021   2024   2025   2026     1  0.0000000  1.2552000  3
   2021   2024   2025   2027     1  0.0000000  1.2552000  3
   2021   2024   2035   2036     1  0.0000000  1.2552000  3
   2021   2024   2035   2037     1  0.0000000  1.2552000  3
   2022   2021   2024   2025     1  0.0000000  1.2552000  3
   2022   2021   2024   2035     1  0.0000000  1.2552000  3
   2023   2021   2024   2025     1  0.0000000  1.2552000  3
   2023   2021   2024   2035     1  0.0000000  1.2552000  3
   2024   2025   2028   2029     1  0.0000000  0.6508444  3
   2024   2025   2028   2030     1  0.0000000  0.6508444  3
   2024   2035   2038   2039     1  0.0000000  0.6508444  3
   2024   2035   2038   2040     1  0.0000000  0.6508444  3
   2025   2024   2035   2036     1  0.0000000  1.2552000  3
   2025   2024   2035   2037     1  0.0000000  1.2552000  3
   2026   2025   2028   2031     1  0.0000000  0.6508444  3
   2026   2025   2028   2029     1  0.0000000  0.6508444  3
   2026   2025   2028   2030     1  0.0000000  0.6508444  3
   2026   2025   2024   2035     1  0.0000000  1.2552000  3
   2027   2025   2028   2031     1  0.0000000  0.6508444  3
   2027   2025   2028   2029     1  0.0000000  0.6508444  3
   2027   2025   2028   2030     1  0.0000000  0.6508444  3
   2027   2025   2024   2035     1  0.0000000  1.2552000  3
   2028   2031   2033   2034     1  180.0000771  9.6232000  2
   2029   2028   2031   2032     1  0.0000000  3.3472000  1
   2029   2028   2031   2032     1  0.0000000  0.0000000  2
   2029   2028   2031   2032     1  180.0000771  0.3347200  3
   2029   2028   2031   2033     1  180.0000771  0.0000000  2
   2030   2028   2031   2032     1  0.0000000  3.3472000  1
   2030   2028   2031   2032     1  0.0000000  0.0000000  2
   2030   2028   2031   2032     1  180.0000771  0.3347200  3
   2030   2028   2031   2033     1  180.0000771  0.0000000  2
   2032   2031   2033   2034     1  0.0000000  7.9496000  1
   2032   2031   2033   2034     1  180.0000771  9.6232000  2
   2036   2035   2038   2041     1  0.0000000  0.6508444  3
   2036   2035   2038   2039     1  0.0000000  0.6508444  3
   2036   2035   2038   2040     1  0.0000000  0.6508444  3
   2037   2035   2038   2041     1  0.0000000  0.6508444  3
   2037   2035   2038   2039     1  0.0000000  0.6508444  3
   2037   2035   2038   2040     1  0.0000000  0.6508444  3
   2038   2041   2043   2044     1  180.0000771  9.6232000  2
   2039   2038   2041   2042     1  0.0000000  3.3472000  1
   2039   2038   2041   2042     1  0.0000000  0.0000000  2
   2039   2038   2041   2042     1  180.0000771  0.3347200  3
   2039   2038   2041   2043     1  180.0000771  0.0000000  2
   2040   2038   2041   2042     1  0.0000000  3.3472000  1
   2040   2038   2041   2042     1  0.0000000  0.0000000  2
   2040   2038   2041   2042     1  180.0000771  0.3347200  3
   2040   2038   2041   2043     1  180.0000771  0.0000000  2
   2042   2041   2043   2044     1  0.0000000  7.9496000  1
   2042   2041   2043   2044     1  180.0000771  9.6232000  2
   2046   2049   2052   2053     1  0.0000000  0.6508444  3
   2046   2049   2052   2054     1  0.0000000  0.6508444  3
   2047   2046   2049   2052     1  0.0000000  0.6508444  3
   2047   2046   2049   2050     1  0.0000000  0.6508444  3
   2047   2046   2049   2051     1  0.0000000  0.6508444  3
   2048   2046   2049   2052     1  0.0000000  0.6508444  3
   2048   2046   2049   2050     1  0.0000000  0.6508444  3
   2048   2046   2049   2051     1  0.0000000  0.6508444  3
   2050   2049   2046   2076     1  0.0000000  1.0460000  1
   2050   2049   2046   2076     1  0.0000000  0.0000000  3
   2050   2049   2052   2055     1  0.0000000  0.6508444  3
   2050   2049   2052   2053     1  0.0000000  0.6508444  3
   2050   2049   2052   2054     1  0.0000000  0.6508444  3
   2051   2049   2046   2076     1  0.0000000  1.0460000  1
   2051   2049   2046   2076     1  0.0000000  0.0000000  3
   2051   2049   2052   2055     1  0.0000000  0.6508444  3
   2051   2049   2052   2053     1  0.0000000  0.6508444  3
   2051   2049   2052   2054     1  0.0000000  0.6508444  3
   2052   2055   2056   2057     1  0.0000000  1.2552000  3
   2052   2055   2056   2058     1  0.0000000  1.2552000  3
   2052   2055   2066   2067     1  0.0000000  1.2552000  3
   2052   2055   2066   2068     1  0.0000000  1.2552000  3
   2053   2052   2055   2056     1  0.0000000  1.2552000  3
   2053   2052   2055   2066     1  0.0000000  1.2552000  3
   2054   2052   2055   2056     1  0.0000000  1.2552000  3
   2054   2052   2055   2066     1  0.0000000  1.2552000  3
   2055   2056   2059   2060     1  0.0000000  0.6508444  3
   2055   2056   2059   2061     1  0.0000000  0.6508444  3
   2055   2066   2069   2070     1  0.0000000  0.6508444  3
   2055   2066   2069   2071     1  0.0000000  0.6508444  3
   2056   2055   2066   2067     1  0.0000000  1.2552000  3
   2056   2055   2066   2068     1  0.0000000  1.2552000  3
   2057   2056   2055   2066     1  0.0000000  1.2552000  3
   2057   2056   2059   2062     1  0.0000000  0.6508444  3
   2057   2056   2059   2060     1  0.0000000  0.6508444  3
   2057   2056   2059   2061     1  0.0000000  0.6508444  3
   2058   2056   2055   2066     1  0.0000000  1.2552000  3
   2058   2056   2059   2062     1  0.0000000  0.6508444  3
   2058   2056   2059   2060     1  0.0000000  0.6508444  3
   2058   2056   2059   2061     1  0.0000000  0.6508444  3
   2059   2062   2064   2065     1  180.0000771  9.6232000  2
   2060   2059   2062   2063     1  0.0000000  3.3472000  1
   2060   2059   2062   2063     1  0.0000000  0.0000000  2
   2060   2059   2062   2063     1  180.0000771  0.3347200  3
   2060   2059   2062   2064     1  180.0000771  0.0000000  2
   2061   2059   2062   2063     1  0.0000000  3.3472000  1
   2061   2059   2062   2063     1  0.0000000  0.0000000  2
   2061   2059   2062   2063     1  180.0000771  0.3347200  3
   2061   2059   2062   2064     1  180.0000771  0.0000000  2
   2063   2062   2064   2065     1  0.0000000  7.9496000  1
   2063   2062   2064   2065     1  180.0000771  9.6232000  2
   2067   2066   2069   2072     1  0.0000000  0.6508444  3
   2067   2066   2069   2070     1  0.0000000  0.6508444  3
   2067   2066   2069   2071     1  0.0000000  0.6508444  3
   2068   2066   2069   2072     1  0.0000000  0.6508444  3
   2068   2066   2069   2070     1  0.0000000  0.6508444  3
   2068   2066   2069   2071     1  0.0000000  0.6508444  3
   2069   2072   2074   2075     1  180.0000771  9.6232000  2
   2070   2069   2072   2073     1  0.0000000  3.3472000  1
   2070   2069   2072   2073     1  0.0000000  0.0000000  2
   2070   2069   2072   2073     1  180.0000771  0.3347200  3
   2070   2069   2072   2074     1  180.0000771  0.0000000  2
   2071   2069   2072   2073     1  0.0000000  3.3472000  1
   2071   2069   2072   2073     1  0.0000000  0.0000000  2
   2071   2069   2072   2073     1  180.0000771  0.3347200  3
   2071   2069   2072   2074     1  180.0000771  0.0000000  2
   2073   2072   2074   2075     1  0.0000000  7.9496000  1
   2073   2072   2074   2075     1  180.0000771  9.6232000  2
   2077   2080   2083   2084     1  0.0000000  0.6508444  3
   2077   2080   2083   2085     1  0.0000000  0.6508444  3
   2078   2077   2080   2083     1  0.0000000  0.6508444  3
   2078   2077   2080   2081     1  0.0000000  0.6508444  3
   2078   2077   2080   2082     1  0.0000000  0.6508444  3
   2079   2077   2080   2083     1  0.0000000  0.6508444  3
   2079   2077   2080   2081     1  0.0000000  0.6508444  3
   2079   2077   2080   2082     1  0.0000000  0.6508444  3
   2081   2080   2083   2086     1  0.0000000  0.6508444  3
   2081   2080   2083   2084     1  0.0000000  0.6508444  3
   2081   2080   2083   2085     1  0.0000000  0.6508444  3
   2081   2080   2077   2107     1  0.0000000  1.0460000  1
   2081   2080   2077   2107     1  0.0000000  0.0000000  3
   2082   2080   2083   2086     1  0.0000000  0.6508444  3
   2082   2080   2083   2084     1  0.0000000  0.6508444  3
   2082   2080   2083   2085     1  0.0000000  0.6508444  3
   2082   2080   2077   2107     1  0.0000000  1.0460000  1
   2082   2080   2077   2107     1  0.0000000  0.0000000  3
   2083   2086   2087   2088     1  0.0000000  1.2552000  3
   2083   2086   2087   2089     1  0.0000000  1.2552000  3
   2083   2086   2097   2098     1  0.0000000  1.2552000  3
   2083   2086   2097   2099     1  0.0000000  1.2552000  3
   2084   2083   2086   2087     1  0.0000000  1.2552000  3
   2084   2083   2086   2097     1  0.0000000  1.2552000  3
   2085   2083   2086   2087     1  0.0000000  1.2552000  3
   2085   2083   2086   2097     1  0.0000000  1.2552000  3
   2086   2087   2090   2091     1  0.0000000  0.6508444  3
   2086   2087   2090   2092     1  0.0000000  0.6508444  3
   2086   2097   2100   2101     1  0.0000000  0.6508444  3
   2086   2097   2100   2102     1  0.0000000  0.6508444  3
   2087   2086   2097   2098     1  0.0000000  1.2552000  3
   2087   2086   2097   2099     1  0.0000000  1.2552000  3
   2088   2087   2090   2093     1  0.0000000  0.6508444  3
   2088   2087   2090   2091     1  0.0000000  0.6508444  3
   2088   2087   2090   2092     1  0.0000000  0.6508444  3
   2088   2087   2086   2097     1  0.0000000  1.2552000  3
   2089   2087   2090   2093     1  0.0000000  0.6508444  3
   2089   2087   2090   2091     1  0.0000000  0.6508444  3
   2089   2087   2090   2092     1  0.0000000  0.6508444  3
   2089   2087   2086   2097     1  0.0000000  1.2552000  3
   2090   2093   2095   2096     1  180.0000771  9.6232000  2
   2091   2090   2093   2094     1  0.0000000  3.3472000  1
   2091   2090   2093   2094     1  0.0000000  0.0000000  2
   2091   2090   2093   2094     1  180.0000771  0.3347200  3
   2091   2090   2093   2095     1  180.0000771  0.0000000  2
   2092   2090   2093   2094     1  0.0000000  3.3472000  1
   2092   2090   2093   2094     1  0.0000000  0.0000000  2
   2092   2090   2093   2094     1  180.0000771  0.3347200  3
   2092   2090   2093   2095     1  180.0000771  0.0000000  2
   2094   2093   2095   2096     1  0.0000000  7.9496000  1
   2094   2093   2095   2096     1  180.0000771  9.6232000  2
   2098   2097   2100   2103     1  0.0000000  0.6508444  3
   2098   2097   2100   2101     1  0.0000000  0.6508444  3
   2098   2097   2100   2102     1  0.0000000  0.6508444  3
   2099   2097   2100   2103     1  0.0000000  0.6508444  3
   2099   2097   2100   2101     1  0.0000000  0.6508444  3
   2099   2097   2100   2102     1  0.0000000  0.6508444  3
   2100   2103   2105   2106     1  180.0000771  9.6232000  2
   2101   2100   2103   2104     1  0.0000000  3.3472000  1
   2101   2100   2103   2104     1  0.0000000  0.0000000  2
   2101   2100   2103   2104     1  180.0000771  0.3347200  3
   2101   2100   2103   2105     1  180.0000771  0.0000000  2
   2102   2100   2103   2104     1  0.0000000  3.3472000  1
   2102   2100   2103   2104     1  0.0000000  0.0000000  2
   2102   2100   2103   2104     1  180.0000771  0.3347200  3
   2102   2100   2103   2105     1  180.0000771  0.0000000  2
   2104   2103   2105   2106     1  0.0000000  7.9496000  1
   2104   2103   2105   2106     1  180.0000771  9.6232000  2
   2108   2111   2114   2115     1  0.0000000  0.6508444  3
   2108   2111   2114   2116     1  0.0000000  0.6508444  3
   2109   2108   2111   2114     1  0.0000000  0.6508444  3
   2109   2108   2111   2112     1  0.0000000  0.6508444  3
   2109   2108   2111   2113     1  0.0000000  0.6508444  3
   2110   2108   2111   2114     1  0.0000000  0.6508444  3
   2110   2108   2111   2112     1  0.0000000  0.6508444  3
   2110   2108   2111   2113     1  0.0000000  0.6508444  3
   2112   2111   2108   2138     1  0.0000000  1.0460000  1
   2112   2111   2108   2138     1  0.0000000  0.0000000  3
   2112   2111   2114   2117     1  0.0000000  0.6508444  3
   2112   2111   2114   2115     1  0.0000000  0.6508444  3
   2112   2111   2114   2116     1  0.0000000  0.6508444  3
   2113   2111   2108   2138     1  0.0000000  1.0460000  1
   2113   2111   2108   2138     1  0.0000000  0.0000000  3
   2113   2111   2114   2117     1  0.0000000  0.6508444  3
   2113   2111   2114   2115     1  0.0000000  0.6508444  3
   2113   2111   2114   2116     1  0.0000000  0.6508444  3
   2114   2117   2118   2119     1  0.0000000  1.2552000  3
   2114   2117   2118   2120     1  0.0000000  1.2552000  3
   2114   2117   2128   2129     1  0.0000000  1.2552000  3
   2114   2117   2128   2130     1  0.0000000  1.2552000  3
   2115   2114   2117   2118     1  0.0000000  1.2552000  3
   2115   2114   2117   2128     1  0.0000000  1.2552000  3
   2116   2114   2117   2118     1  0.0000000  1.2552000  3
   2116   2114   2117   2128     1  0.0000000  1.2552000  3
   2117   2118   2121   2122     1  0.0000000  0.6508444  3
   2117   2118   2121   2123     1  0.0000000  0.6508444  3
   2117   2128   2131   2132     1  0.0000000  0.6508444  3
   2117   2128   2131   2133     1  0.0000000  0.6508444  3
   2118   2117   2128   2129     1  0.0000000  1.2552000  3
   2118   2117   2128   2130     1  0.0000000  1.2552000  3
   2119   2118   2117   2128     1  0.0000000  1.2552000  3
   2119   2118   2121   2124     1  0.0000000  0.6508444  3
   2119   2118   2121   2122     1  0.0000000  0.6508444  3
   2119   2118   2121   2123     1  0.0000000  0.6508444  3
   2120   2118   2117   2128     1  0.0000000  1.2552000  3
   2120   2118   2121   2124     1  0.0000000  0.6508444  3
   2120   2118   2121   2122     1  0.0000000  0.6508444  3
   2120   2118   2121   2123     1  0.0000000  0.6508444  3
   2121   2124   2126   2127     1  180.0000771  9.6232000  2
   2122   2121   2124   2125     1  0.0000000  3.3472000  1
   2122   2121   2124   2125     1  0.0000000  0.0000000  2
   2122   2121   2124   2125     1  180.0000771  0.3347200  3
   2122   2121   2124   2126     1  180.0000771  0.0000000  2
   2123   2121   2124   2125     1  0.0000000  3.3472000  1
   2123   2121   2124   2125     1  0.0000000  0.0000000  2
   2123   2121   2124   2125     1  180.0000771  0.3347200  3
   2123   2121   2124   2126     1  180.0000771  0.0000000  2
   2125   2124   2126   2127     1  0.0000000  7.9496000  1
   2125   2124   2126   2127     1  180.0000771  9.6232000  2
   2129   2128   2131   2134     1  0.0000000  0.6508444  3
   2129   2128   2131   2132     1  0.0000000  0.6508444  3
   2129   2128   2131   2133     1  0.0000000  0.6508444  3
   2130   2128   2131   2134     1  0.0000000  0.6508444  3
   2130   2128   2131   2132     1  0.0000000  0.6508444  3
   2130   2128   2131   2133     1  0.0000000  0.6508444  3
   2131   2134   2136   2137     1  180.0000771  9.6232000  2
   2132   2131   2134   2135     1  0.0000000  3.3472000  1
   2132   2131   2134   2135     1  0.0000000  0.0000000  2
   2132   2131   2134   2135     1  180.0000771  0.3347200  3
   2132   2131   2134   2136     1  180.0000771  0.0000000  2
   2133   2131   2134   2135     1  0.0000000  3.3472000  1
   2133   2131   2134   2135     1  0.0000000  0.0000000  2
   2133   2131   2134   2135     1  180.0000771  0.3347200  3
   2133   2131   2134   2136     1  180.0000771  0.0000000  2
   2135   2134   2136   2137     1  0.0000000  7.9496000  1
   2135   2134   2136   2137     1  180.0000771  9.6232000  2
   2139   2142   2145   2146     1  0.0000000  0.6508444  3
   2139   2142   2145   2147     1  0.0000000  0.6508444  3
   2140   2139   2142   2145     1  0.0000000  0.6508444  3
   2140   2139   2142   2143     1  0.0000000  0.6508444  3
   2140   2139   2142   2144     1  0.0000000  0.6508444  3
   2141   2139   2142   2145     1  0.0000000  0.6508444  3
   2141   2139   2142   2143     1  0.0000000  0.6508444  3
   2141   2139   2142   2144     1  0.0000000  0.6508444  3
   2143   2142   2145   2148     1  0.0000000  0.6508444  3
   2143   2142   2145   2146     1  0.0000000  0.6508444  3
   2143   2142   2145   2147     1  0.0000000  0.6508444  3
   2143   2142   2139   2169     1  0.0000000  1.0460000  1
   2143   2142   2139   2169     1  0.0000000  0.0000000  3
   2144   2142   2145   2148     1  0.0000000  0.6508444  3
   2144   2142   2145   2146     1  0.0000000  0.6508444  3
   2144   2142   2145   2147     1  0.0000000  0.6508444  3
   2144   2142   2139   2169     1  0.0000000  1.0460000  1
   2144   2142   2139   2169     1  0.0000000  0.0000000  3
   2145   2148   2149   2150     1  0.0000000  1.2552000  3
   2145   2148   2149   2151     1  0.0000000  1.2552000  3
   2145   2148   2159   2160     1  0.0000000  1.2552000  3
   2145   2148   2159   2161     1  0.0000000  1.2552000  3
   2146   2145   2148   2149     1  0.0000000  1.2552000  3
   2146   2145   2148   2159     1  0.0000000  1.2552000  3
   2147   2145   2148   2149     1  0.0000000  1.2552000  3
   2147   2145   2148   2159     1  0.0000000  1.2552000  3
   2148   2149   2152   2153     1  0.0000000  0.6508444  3
   2148   2149   2152   2154     1  0.0000000  0.6508444  3
   2148   2159   2162   2163     1  0.0000000  0.6508444  3
   2148   2159   2162   2164     1  0.0000000  0.6508444  3
   2149   2148   2159   2160     1  0.0000000  1.2552000  3
   2149   2148   2159   2161     1  0.0000000  1.2552000  3
   2150   2149   2152   2155     1  0.0000000  0.6508444  3
   2150   2149   2152   2153     1  0.0000000  0.6508444  3
   2150   2149   2152   2154     1  0.0000000  0.6508444  3
   2150   2149   2148   2159     1  0.0000000  1.2552000  3
   2151   2149   2152   2155     1  0.0000000  0.6508444  3
   2151   2149   2152   2153     1  0.0000000  0.6508444  3
   2151   2149   2152   2154     1  0.0000000  0.6508444  3
   2151   2149   2148   2159     1  0.0000000  1.2552000  3
   2152   2155   2157   2158     1  180.0000771  9.6232000  2
   2153   2152   2155   2156     1  0.0000000  3.3472000  1
   2153   2152   2155   2156     1  0.0000000  0.0000000  2
   2153   2152   2155   2156     1  180.0000771  0.3347200  3
   2153   2152   2155   2157     1  180.0000771  0.0000000  2
   2154   2152   2155   2156     1  0.0000000  3.3472000  1
   2154   2152   2155   2156     1  0.0000000  0.0000000  2
   2154   2152   2155   2156     1  180.0000771  0.3347200  3
   2154   2152   2155   2157     1  180.0000771  0.0000000  2
   2156   2155   2157   2158     1  0.0000000  7.9496000  1
   2156   2155   2157   2158     1  180.0000771  9.6232000  2
   2160   2159   2162   2165     1  0.0000000  0.6508444  3
   2160   2159   2162   2163     1  0.0000000  0.6508444  3
   2160   2159   2162   2164     1  0.0000000  0.6508444  3
   2161   2159   2162   2165     1  0.0000000  0.6508444  3
   2161   2159   2162   2163     1  0.0000000  0.6508444  3
   2161   2159   2162   2164     1  0.0000000  0.6508444  3
   2162   2165   2167   2168     1  180.0000771  9.6232000  2
   2163   2162   2165   2166     1  0.0000000  3.3472000  1
   2163   2162   2165   2166     1  0.0000000  0.0000000  2
   2163   2162   2165   2166     1  180.0000771  0.3347200  3
   2163   2162   2165   2167     1  180.0000771  0.0000000  2
   2164   2162   2165   2166     1  0.0000000  3.3472000  1
   2164   2162   2165   2166     1  0.0000000  0.0000000  2
   2164   2162   2165   2166     1  180.0000771  0.3347200  3
   2164   2162   2165   2167     1  180.0000771  0.0000000  2
   2166   2165   2167   2168     1  0.0000000  7.9496000  1
   2166   2165   2167   2168     1  180.0000771  9.6232000  2
   2170   2173   2176   2177     1  0.0000000  0.6508444  3
   2170   2173   2176   2178     1  0.0000000  0.6508444  3
   2171   2170   2173   2176     1  0.0000000  0.6508444  3
   2171   2170   2173   2174     1  0.0000000  0.6508444  3
   2171   2170   2173   2175     1  0.0000000  0.6508444  3
   2172   2170   2173   2176     1  0.0000000  0.6508444  3
   2172   2170   2173   2174     1  0.0000000  0.6508444  3
   2172   2170   2173   2175     1  0.0000000  0.6508444  3
   2174   2173   2170   2200     1  0.0000000  1.0460000  1
   2174   2173   2170   2200     1  0.0000000  0.0000000  3
   2174   2173   2176   2179     1  0.0000000  0.6508444  3
   2174   2173   2176   2177     1  0.0000000  0.6508444  3
   2174   2173   2176   2178     1  0.0000000  0.6508444  3
   2175   2173   2170   2200     1  0.0000000  1.0460000  1
   2175   2173   2170   2200     1  0.0000000  0.0000000  3
   2175   2173   2176   2179     1  0.0000000  0.6508444  3
   2175   2173   2176   2177     1  0.0000000  0.6508444  3
   2175   2173   2176   2178     1  0.0000000  0.6508444  3
   2176   2179   2180   2181     1  0.0000000  1.2552000  3
   2176   2179   2180   2182     1  0.0000000  1.2552000  3
   2176   2179   2190   2191     1  0.0000000  1.2552000  3
   2176   2179   2190   2192     1  0.0000000  1.2552000  3
   2177   2176   2179   2180     1  0.0000000  1.2552000  3
   2177   2176   2179   2190     1  0.0000000  1.2552000  3
   2178   2176   2179   2180     1  0.0000000  1.2552000  3
   2178   2176   2179   2190     1  0.0000000  1.2552000  3
   2179   2180   2183   2184     1  0.0000000  0.6508444  3
   2179   2180   2183   2185     1  0.0000000  0.6508444  3
   2179   2190   2193   2194     1  0.0000000  0.6508444  3
   2179   2190   2193   2195     1  0.0000000  0.6508444  3
   2180   2179   2190   2191     1  0.0000000  1.2552000  3
   2180   2179   2190   2192     1  0.0000000  1.2552000  3
   2181   2180   2179   2190     1  0.0000000  1.2552000  3
   2181   2180   2183   2186     1  0.0000000  0.6508444  3
   2181   2180   2183   2184     1  0.0000000  0.6508444  3
   2181   2180   2183   2185     1  0.0000000  0.6508444  3
   2182   2180   2179   2190     1  0.0000000  1.2552000  3
   2182   2180   2183   2186     1  0.0000000  0.6508444  3
   2182   2180   2183   2184     1  0.0000000  0.6508444  3
   2182   2180   2183   2185     1  0.0000000  0.6508444  3
   2183   2186   2188   2189     1  180.0000771  9.6232000  2
   2184   2183   2186   2187     1  0.0000000  3.3472000  1
   2184   2183   2186   2187     1  0.0000000  0.0000000  2
   2184   2183   2186   2187     1  180.0000771  0.3347200  3
   2184   2183   2186   2188     1  180.0000771  0.0000000  2
   2185   2183   2186   2187     1  0.0000000  3.3472000  1
   2185   2183   2186   2187     1  0.0000000  0.0000000  2
   2185   2183   2186   2187     1  180.0000771  0.3347200  3
   2185   2183   2186   2188     1  180.0000771  0.0000000  2
   2187   2186   2188   2189     1  0.0000000  7.9496000  1
   2187   2186   2188   2189     1  180.0000771  9.6232000  2
   2191   2190   2193   2196     1  0.0000000  0.6508444  3
   2191   2190   2193   2194     1  0.0000000  0.6508444  3
   2191   2190   2193   2195     1  0.0000000  0.6508444  3
   2192   2190   2193   2196     1  0.0000000  0.6508444  3
   2192   2190   2193   2194     1  0.0000000  0.6508444  3
   2192   2190   2193   2195     1  0.0000000  0.6508444  3
   2193   2196   2198   2199     1  180.0000771  9.6232000  2
   2194   2193   2196   2197     1  0.0000000  3.3472000  1
   2194   2193   2196   2197     1  0.0000000  0.0000000  2
   2194   2193   2196   2197     1  180.0000771  0.3347200  3
   2194   2193   2196   2198     1  180.0000771  0.0000000  2
   2195   2193   2196   2197     1  0.0000000  3.3472000  1
   2195   2193   2196   2197     1  0.0000000  0.0000000  2
   2195   2193   2196   2197     1  180.0000771  0.3347200  3
   2195   2193   2196   2198     1  180.0000771  0.0000000  2
   2197   2196   2198   2199     1  0.0000000  7.9496000  1
   2197   2196   2198   2199     1  180.0000771  9.6232000  2
   2201   2204   2207   2208     1  0.0000000  0.6508444  3
   2201   2204   2207   2209     1  0.0000000  0.6508444  3
   2202   2201   2204   2207     1  0.0000000  0.6508444  3
   2202   2201   2204   2205     1  0.0000000  0.6508444  3
   2202   2201   2204   2206     1  0.0000000  0.6508444  3
   2203   2201   2204   2207     1  0.0000000  0.6508444  3
   2203   2201   2204   2205     1  0.0000000  0.6508444  3
   2203   2201   2204   2206     1  0.0000000  0.6508444  3
   2205   2204   2207   2210     1  0.0000000  0.6508444  3
   2205   2204   2207   2208     1  0.0000000  0.6508444  3
   2205   2204   2207   2209     1  0.0000000  0.6508444  3
   2205   2204   2201   2231     1  0.0000000  1.0460000  1
   2205   2204   2201   2231     1  0.0000000  0.0000000  3
   2206   2204   2207   2210     1  0.0000000  0.6508444  3
   2206   2204   2207   2208     1  0.0000000  0.6508444  3
   2206   2204   2207   2209     1  0.0000000  0.6508444  3
   2206   2204   2201   2231     1  0.0000000  1.0460000  1
   2206   2204   2201   2231     1  0.0000000  0.0000000  3
   2207   2210   2211   2212     1  0.0000000  1.2552000  3
   2207   2210   2211   2213     1  0.0000000  1.2552000  3
   2207   2210   2221   2222     1  0.0000000  1.2552000  3
   2207   2210   2221   2223     1  0.0000000  1.2552000  3
   2208   2207   2210   2211     1  0.0000000  1.2552000  3
   2208   2207   2210   2221     1  0.0000000  1.2552000  3
   2209   2207   2210   2211     1  0.0000000  1.2552000  3
   2209   2207   2210   2221     1  0.0000000  1.2552000  3
   2210   2211   2214   2215     1  0.0000000  0.6508444  3
   2210   2211   2214   2216     1  0.0000000  0.6508444  3
   2210   2221   2224   2225     1  0.0000000  0.6508444  3
   2210   2221   2224   2226     1  0.0000000  0.6508444  3
   2211   2210   2221   2222     1  0.0000000  1.2552000  3
   2211   2210   2221   2223     1  0.0000000  1.2552000  3
   2212   2211   2214   2217     1  0.0000000  0.6508444  3
   2212   2211   2214   2215     1  0.0000000  0.6508444  3
   2212   2211   2214   2216     1  0.0000000  0.6508444  3
   2212   2211   2210   2221     1  0.0000000  1.2552000  3
   2213   2211   2214   2217     1  0.0000000  0.6508444  3
   2213   2211   2214   2215     1  0.0000000  0.6508444  3
   2213   2211   2214   2216     1  0.0000000  0.6508444  3
   2213   2211   2210   2221     1  0.0000000  1.2552000  3
   2214   2217   2219   2220     1  180.0000771  9.6232000  2
   2215   2214   2217   2218     1  0.0000000  3.3472000  1
   2215   2214   2217   2218     1  0.0000000  0.0000000  2
   2215   2214   2217   2218     1  180.0000771  0.3347200  3
   2215   2214   2217   2219     1  180.0000771  0.0000000  2
   2216   2214   2217   2218     1  0.0000000  3.3472000  1
   2216   2214   2217   2218     1  0.0000000  0.0000000  2
   2216   2214   2217   2218     1  180.0000771  0.3347200  3
   2216   2214   2217   2219     1  180.0000771  0.0000000  2
   2218   2217   2219   2220     1  0.0000000  7.9496000  1
   2218   2217   2219   2220     1  180.0000771  9.6232000  2
   2222   2221   2224   2227     1  0.0000000  0.6508444  3
   2222   2221   2224   2225     1  0.0000000  0.6508444  3
   2222   2221   2224   2226     1  0.0000000  0.6508444  3
   2223   2221   2224   2227     1  0.0000000  0.6508444  3
   2223   2221   2224   2225     1  0.0000000  0.6508444  3
   2223   2221   2224   2226     1  0.0000000  0.6508444  3
   2224   2227   2229   2230     1  180.0000771  9.6232000  2
   2225   2224   2227   2228     1  0.0000000  3.3472000  1
   2225   2224   2227   2228     1  0.0000000  0.0000000  2
   2225   2224   2227   2228     1  180.0000771  0.3347200  3
   2225   2224   2227   2229     1  180.0000771  0.0000000  2
   2226   2224   2227   2228     1  0.0000000  3.3472000  1
   2226   2224   2227   2228     1  0.0000000  0.0000000  2
   2226   2224   2227   2228     1  180.0000771  0.3347200  3
   2226   2224   2227   2229     1  180.0000771  0.0000000  2
   2228   2227   2229   2230     1  0.0000000  7.9496000  1
   2228   2227   2229   2230     1  180.0000771  9.6232000  2
   2232   2235   2238   2239     1  0.0000000  0.6508444  3
   2232   2235   2238   2240     1  0.0000000  0.6508444  3
   2233   2232   2235   2238     1  0.0000000  0.6508444  3
   2233   2232   2235   2236     1  0.0000000  0.6508444  3
   2233   2232   2235   2237     1  0.0000000  0.6508444  3
   2234   2232   2235   2238     1  0.0000000  0.6508444  3
   2234   2232   2235   2236     1  0.0000000  0.6508444  3
   2234   2232   2235   2237     1  0.0000000  0.6508444  3
   2236   2235   2232   2262     1  0.0000000  1.0460000  1
   2236   2235   2232   2262     1  0.0000000  0.0000000  3
   2236   2235   2238   2241     1  0.0000000  0.6508444  3
   2236   2235   2238   2239     1  0.0000000  0.6508444  3
   2236   2235   2238   2240     1  0.0000000  0.6508444  3
   2237   2235   2232   2262     1  0.0000000  1.0460000  1
   2237   2235   2232   2262     1  0.0000000  0.0000000  3
   2237   2235   2238   2241     1  0.0000000  0.6508444  3
   2237   2235   2238   2239     1  0.0000000  0.6508444  3
   2237   2235   2238   2240     1  0.0000000  0.6508444  3
   2238   2241   2242   2243     1  0.0000000  1.2552000  3
   2238   2241   2242   2244     1  0.0000000  1.2552000  3
   2238   2241   2252   2253     1  0.0000000  1.2552000  3
   2238   2241   2252   2254     1  0.0000000  1.2552000  3
   2239   2238   2241   2242     1  0.0000000  1.2552000  3
   2239   2238   2241   2252     1  0.0000000  1.2552000  3
   2240   2238   2241   2242     1  0.0000000  1.2552000  3
   2240   2238   2241   2252     1  0.0000000  1.2552000  3
   2241   2242   2245   2246     1  0.0000000  0.6508444  3
   2241   2242   2245   2247     1  0.0000000  0.6508444  3
   2241   2252   2255   2256     1  0.0000000  0.6508444  3
   2241   2252   2255   2257     1  0.0000000  0.6508444  3
   2242   2241   2252   2253     1  0.0000000  1.2552000  3
   2242   2241   2252   2254     1  0.0000000  1.2552000  3
   2243   2242   2241   2252     1  0.0000000  1.2552000  3
   2243   2242   2245   2248     1  0.0000000  0.6508444  3
   2243   2242   2245   2246     1  0.0000000  0.6508444  3
   2243   2242   2245   2247     1  0.0000000  0.6508444  3
   2244   2242   2241   2252     1  0.0000000  1.2552000  3
   2244   2242   2245   2248     1  0.0000000  0.6508444  3
   2244   2242   2245   2246     1  0.0000000  0.6508444  3
   2244   2242   2245   2247     1  0.0000000  0.6508444  3
   2245   2248   2250   2251     1  180.0000771  9.6232000  2
   2246   2245   2248   2249     1  0.0000000  3.3472000  1
   2246   2245   2248   2249     1  0.0000000  0.0000000  2
   2246   2245   2248   2249     1  180.0000771  0.3347200  3
   2246   2245   2248   2250     1  180.0000771  0.0000000  2
   2247   2245   2248   2249     1  0.0000000  3.3472000  1
   2247   2245   2248   2249     1  0.0000000  0.0000000  2
   2247   2245   2248   2249     1  180.0000771  0.3347200  3
   2247   2245   2248   2250     1  180.0000771  0.0000000  2
   2249   2248   2250   2251     1  0.0000000  7.9496000  1
   2249   2248   2250   2251     1  180.0000771  9.6232000  2
   2253   2252   2255   2258     1  0.0000000  0.6508444  3
   2253   2252   2255   2256     1  0.0000000  0.6508444  3
   2253   2252   2255   2257     1  0.0000000  0.6508444  3
   2254   2252   2255   2258     1  0.0000000  0.6508444  3
   2254   2252   2255   2256     1  0.0000000  0.6508444  3
   2254   2252   2255   2257     1  0.0000000  0.6508444  3
   2255   2258   2260   2261     1  180.0000771  9.6232000  2
   2256   2255   2258   2259     1  0.0000000  3.3472000  1
   2256   2255   2258   2259     1  0.0000000  0.0000000  2
   2256   2255   2258   2259     1  180.0000771  0.3347200  3
   2256   2255   2258   2260     1  180.0000771  0.0000000  2
   2257   2255   2258   2259     1  0.0000000  3.3472000  1
   2257   2255   2258   2259     1  0.0000000  0.0000000  2
   2257   2255   2258   2259     1  180.0000771  0.3347200  3
   2257   2255   2258   2260     1  180.0000771  0.0000000  2
   2259   2258   2260   2261     1  0.0000000  7.9496000  1
   2259   2258   2260   2261     1  180.0000771  9.6232000  2
   2263   2266   2269   2270     1  0.0000000  0.6508444  3
   2263   2266   2269   2271     1  0.0000000  0.6508444  3
   2264   2263   2266   2269     1  0.0000000  0.6508444  3
   2264   2263   2266   2267     1  0.0000000  0.6508444  3
   2264   2263   2266   2268     1  0.0000000  0.6508444  3
   2265   2263   2266   2269     1  0.0000000  0.6508444  3
   2265   2263   2266   2267     1  0.0000000  0.6508444  3
   2265   2263   2266   2268     1  0.0000000  0.6508444  3
   2267   2266   2269   2272     1  0.0000000  0.6508444  3
   2267   2266   2269   2270     1  0.0000000  0.6508444  3
   2267   2266   2269   2271     1  0.0000000  0.6508444  3
   2267   2266   2263   2293     1  0.0000000  1.0460000  1
   2267   2266   2263   2293     1  0.0000000  0.0000000  3
   2268   2266   2269   2272     1  0.0000000  0.6508444  3
   2268   2266   2269   2270     1  0.0000000  0.6508444  3
   2268   2266   2269   2271     1  0.0000000  0.6508444  3
   2268   2266   2263   2293     1  0.0000000  1.0460000  1
   2268   2266   2263   2293     1  0.0000000  0.0000000  3
   2269   2272   2273   2274     1  0.0000000  1.2552000  3
   2269   2272   2273   2275     1  0.0000000  1.2552000  3
   2269   2272   2283   2284     1  0.0000000  1.2552000  3
   2269   2272   2283   2285     1  0.0000000  1.2552000  3
   2270   2269   2272   2273     1  0.0000000  1.2552000  3
   2270   2269   2272   2283     1  0.0000000  1.2552000  3
   2271   2269   2272   2273     1  0.0000000  1.2552000  3
   2271   2269   2272   2283     1  0.0000000  1.2552000  3
   2272   2273   2276   2277     1  0.0000000  0.6508444  3
   2272   2273   2276   2278     1  0.0000000  0.6508444  3
   2272   2283   2286   2287     1  0.0000000  0.6508444  3
   2272   2283   2286   2288     1  0.0000000  0.6508444  3
   2273   2272   2283   2284     1  0.0000000  1.2552000  3
   2273   2272   2283   2285     1  0.0000000  1.2552000  3
   2274   2273   2276   2279     1  0.0000000  0.6508444  3
   2274   2273   2276   2277     1  0.0000000  0.6508444  3
   2274   2273   2276   2278     1  0.0000000  0.6508444  3
   2274   2273   2272   2283     1  0.0000000  1.2552000  3
   2275   2273   2276   2279     1  0.0000000  0.6508444  3
   2275   2273   2276   2277     1  0.0000000  0.6508444  3
   2275   2273   2276   2278     1  0.0000000  0.6508444  3
   2275   2273   2272   2283     1  0.0000000  1.2552000  3
   2276   2279   2281   2282     1  180.0000771  9.6232000  2
   2277   2276   2279   2280     1  0.0000000  3.3472000  1
   2277   2276   2279   2280     1  0.0000000  0.0000000  2
   2277   2276   2279   2280     1  180.0000771  0.3347200  3
   2277   2276   2279   2281     1  180.0000771  0.0000000  2
   2278   2276   2279   2280     1  0.0000000  3.3472000  1
   2278   2276   2279   2280     1  0.0000000  0.0000000  2
   2278   2276   2279   2280     1  180.0000771  0.3347200  3
   2278   2276   2279   2281     1  180.0000771  0.0000000  2
   2280   2279   2281   2282     1  0.0000000  7.9496000  1
   2280   2279   2281   2282     1  180.0000771  9.6232000  2
   2284   2283   2286   2289     1  0.0000000  0.6508444  3
   2284   2283   2286   2287     1  0.0000000  0.6508444  3
   2284   2283   2286   2288     1  0.0000000  0.6508444  3
   2285   2283   2286   2289     1  0.0000000  0.6508444  3
   2285   2283   2286   2287     1  0.0000000  0.6508444  3
   2285   2283   2286   2288     1  0.0000000  0.6508444  3
   2286   2289   2291   2292     1  180.0000771  9.6232000  2
   2287   2286   2289   2290     1  0.0000000  3.3472000  1
   2287   2286   2289   2290     1  0.0000000  0.0000000  2
   2287   2286   2289   2290     1  180.0000771  0.3347200  3
   2287   2286   2289   2291     1  180.0000771  0.0000000  2
   2288   2286   2289   2290     1  0.0000000  3.3472000  1
   2288   2286   2289   2290     1  0.0000000  0.0000000  2
   2288   2286   2289   2290     1  180.0000771  0.3347200  3
   2288   2286   2289   2291     1  180.0000771  0.0000000  2
   2290   2289   2291   2292     1  0.0000000  7.9496000  1
   2290   2289   2291   2292     1  180.0000771  9.6232000  2
   2294   2297   2300   2301     1  0.0000000  0.6508444  3
   2294   2297   2300   2302     1  0.0000000  0.6508444  3
   2295   2294   2297   2300     1  0.0000000  0.6508444  3
   2295   2294   2297   2298     1  0.0000000  0.6508444  3
   2295   2294   2297   2299     1  0.0000000  0.6508444  3
   2296   2294   2297   2300     1  0.0000000  0.6508444  3
   2296   2294   2297   2298     1  0.0000000  0.6508444  3
   2296   2294   2297   2299     1  0.0000000  0.6508444  3
   2298   2297   2294   2324     1  0.0000000  1.0460000  1
   2298   2297   2294   2324     1  0.0000000  0.0000000  3
   2298   2297   2300   2303     1  0.0000000  0.6508444  3
   2298   2297   2300   2301     1  0.0000000  0.6508444  3
   2298   2297   2300   2302     1  0.0000000  0.6508444  3
   2299   2297   2294   2324     1  0.0000000  1.0460000  1
   2299   2297   2294   2324     1  0.0000000  0.0000000  3
   2299   2297   2300   2303     1  0.0000000  0.6508444  3
   2299   2297   2300   2301     1  0.0000000  0.6508444  3
   2299   2297   2300   2302     1  0.0000000  0.6508444  3
   2300   2303   2304   2305     1  0.0000000  1.2552000  3
   2300   2303   2304   2306     1  0.0000000  1.2552000  3
   2300   2303   2314   2315     1  0.0000000  1.2552000  3
   2300   2303   2314   2316     1  0.0000000  1.2552000  3
   2301   2300   2303   2304     1  0.0000000  1.2552000  3
   2301   2300   2303   2314     1  0.0000000  1.2552000  3
   2302   2300   2303   2304     1  0.0000000  1.2552000  3
   2302   2300   2303   2314     1  0.0000000  1.2552000  3
   2303   2304   2307   2308     1  0.0000000  0.6508444  3
   2303   2304   2307   2309     1  0.0000000  0.6508444  3
   2303   2314   2317   2318     1  0.0000000  0.6508444  3
   2303   2314   2317   2319     1  0.0000000  0.6508444  3
   2304   2303   2314   2315     1  0.0000000  1.2552000  3
   2304   2303   2314   2316     1  0.0000000  1.2552000  3
   2305   2304   2303   2314     1  0.0000000  1.2552000  3
   2305   2304   2307   2310     1  0.0000000  0.6508444  3
   2305   2304   2307   2308     1  0.0000000  0.6508444  3
   2305   2304   2307   2309     1  0.0000000  0.6508444  3
   2306   2304   2303   2314     1  0.0000000  1.2552000  3
   2306   2304   2307   2310     1  0.0000000  0.6508444  3
   2306   2304   2307   2308     1  0.0000000  0.6508444  3
   2306   2304   2307   2309     1  0.0000000  0.6508444  3
   2307   2310   2312   2313     1  180.0000771  9.6232000  2
   2308   2307   2310   2311     1  0.0000000  3.3472000  1
   2308   2307   2310   2311     1  0.0000000  0.0000000  2
   2308   2307   2310   2311     1  180.0000771  0.3347200  3
   2308   2307   2310   2312     1  180.0000771  0.0000000  2
   2309   2307   2310   2311     1  0.0000000  3.3472000  1
   2309   2307   2310   2311     1  0.0000000  0.0000000  2
   2309   2307   2310   2311     1  180.0000771  0.3347200  3
   2309   2307   2310   2312     1  180.0000771  0.0000000  2
   2311   2310   2312   2313     1  0.0000000  7.9496000  1
   2311   2310   2312   2313     1  180.0000771  9.6232000  2
   2315   2314   2317   2320     1  0.0000000  0.6508444  3
   2315   2314   2317   2318     1  0.0000000  0.6508444  3
   2315   2314   2317   2319     1  0.0000000  0.6508444  3
   2316   2314   2317   2320     1  0.0000000  0.6508444  3
   2316   2314   2317   2318     1  0.0000000  0.6508444  3
   2316   2314   2317   2319     1  0.0000000  0.6508444  3
   2317   2320   2322   2323     1  180.0000771  9.6232000  2
   2318   2317   2320   2321     1  0.0000000  3.3472000  1
   2318   2317   2320   2321     1  0.0000000  0.0000000  2
   2318   2317   2320   2321     1  180.0000771  0.3347200  3
   2318   2317   2320   2322     1  180.0000771  0.0000000  2
   2319   2317   2320   2321     1  0.0000000  3.3472000  1
   2319   2317   2320   2321     1  0.0000000  0.0000000  2
   2319   2317   2320   2321     1  180.0000771  0.3347200  3
   2319   2317   2320   2322     1  180.0000771  0.0000000  2
   2321   2320   2322   2323     1  0.0000000  7.9496000  1
   2321   2320   2322   2323     1  180.0000771  9.6232000  2
   2325   2328   2331   2332     1  0.0000000  0.6508444  3
   2325   2328   2331   2333     1  0.0000000  0.6508444  3
   2326   2325   2328   2331     1  0.0000000  0.6508444  3
   2326   2325   2328   2329     1  0.0000000  0.6508444  3
   2326   2325   2328   2330     1  0.0000000  0.6508444  3
   2327   2325   2328   2331     1  0.0000000  0.6508444  3
   2327   2325   2328   2329     1  0.0000000  0.6508444  3
   2327   2325   2328   2330     1  0.0000000  0.6508444  3
   2329   2328   2331   2334     1  0.0000000  0.6508444  3
   2329   2328   2331   2332     1  0.0000000  0.6508444  3
   2329   2328   2331   2333     1  0.0000000  0.6508444  3
   2329   2328   2325   2355     1  0.0000000  1.0460000  1
   2329   2328   2325   2355     1  0.0000000  0.0000000  3
   2330   2328   2331   2334     1  0.0000000  0.6508444  3
   2330   2328   2331   2332     1  0.0000000  0.6508444  3
   2330   2328   2331   2333     1  0.0000000  0.6508444  3
   2330   2328   2325   2355     1  0.0000000  1.0460000  1
   2330   2328   2325   2355     1  0.0000000  0.0000000  3
   2331   2334   2335   2336     1  0.0000000  1.2552000  3
   2331   2334   2335   2337     1  0.0000000  1.2552000  3
   2331   2334   2345   2346     1  0.0000000  1.2552000  3
   2331   2334   2345   2347     1  0.0000000  1.2552000  3
   2332   2331   2334   2335     1  0.0000000  1.2552000  3
   2332   2331   2334   2345     1  0.0000000  1.2552000  3
   2333   2331   2334   2335     1  0.0000000  1.2552000  3
   2333   2331   2334   2345     1  0.0000000  1.2552000  3
   2334   2335   2338   2339     1  0.0000000  0.6508444  3
   2334   2335   2338   2340     1  0.0000000  0.6508444  3
   2334   2345   2348   2349     1  0.0000000  0.6508444  3
   2334   2345   2348   2350     1  0.0000000  0.6508444  3
   2335   2334   2345   2346     1  0.0000000  1.2552000  3
   2335   2334   2345   2347     1  0.0000000  1.2552000  3
   2336   2335   2338   2341     1  0.0000000  0.6508444  3
   2336   2335   2338   2339     1  0.0000000  0.6508444  3
   2336   2335   2338   2340     1  0.0000000  0.6508444  3
   2336   2335   2334   2345     1  0.0000000  1.2552000  3
   2337   2335   2338   2341     1  0.0000000  0.6508444  3
   2337   2335   2338   2339     1  0.0000000  0.6508444  3
   2337   2335   2338   2340     1  0.0000000  0.6508444  3
   2337   2335   2334   2345     1  0.0000000  1.2552000  3
   2338   2341   2343   2344     1  180.0000771  9.6232000  2
   2339   2338   2341   2342     1  0.0000000  3.3472000  1
   2339   2338   2341   2342     1  0.0000000  0.0000000  2
   2339   2338   2341   2342     1  180.0000771  0.3347200  3
   2339   2338   2341   2343     1  180.0000771  0.0000000  2
   2340   2338   2341   2342     1  0.0000000  3.3472000  1
   2340   2338   2341   2342     1  0.0000000  0.0000000  2
   2340   2338   2341   2342     1  180.0000771  0.3347200  3
   2340   2338   2341   2343     1  180.0000771  0.0000000  2
   2342   2341   2343   2344     1  0.0000000  7.9496000  1
   2342   2341   2343   2344     1  180.0000771  9.6232000  2
   2346   2345   2348   2351     1  0.0000000  0.6508444  3
   2346   2345   2348   2349     1  0.0000000  0.6508444  3
   2346   2345   2348   2350     1  0.0000000  0.6508444  3
   2347   2345   2348   2351     1  0.0000000  0.6508444  3
   2347   2345   2348   2349     1  0.0000000  0.6508444  3
   2347   2345   2348   2350     1  0.0000000  0.6508444  3
   2348   2351   2353   2354     1  180.0000771  9.6232000  2
   2349   2348   2351   2352     1  0.0000000  3.3472000  1
   2349   2348   2351   2352     1  0.0000000  0.0000000  2
   2349   2348   2351   2352     1  180.0000771  0.3347200  3
   2349   2348   2351   2353     1  180.0000771  0.0000000  2
   2350   2348   2351   2352     1  0.0000000  3.3472000  1
   2350   2348   2351   2352     1  0.0000000  0.0000000  2
   2350   2348   2351   2352     1  180.0000771  0.3347200  3
   2350   2348   2351   2353     1  180.0000771  0.0000000  2
   2352   2351   2353   2354     1  0.0000000  7.9496000  1
   2352   2351   2353   2354     1  180.0000771  9.6232000  2
   2356   2359   2362   2363     1  0.0000000  0.6508444  3
   2356   2359   2362   2364     1  0.0000000  0.6508444  3
   2357   2356   2359   2362     1  0.0000000  0.6508444  3
   2357   2356   2359   2360     1  0.0000000  0.6508444  3
   2357   2356   2359   2361     1  0.0000000  0.6508444  3
   2358   2356   2359   2362     1  0.0000000  0.6508444  3
   2358   2356   2359   2360     1  0.0000000  0.6508444  3
   2358   2356   2359   2361     1  0.0000000  0.6508444  3
   2360   2359   2356   2386     1  0.0000000  1.0460000  1
   2360   2359   2356   2386     1  0.0000000  0.0000000  3
   2360   2359   2362   2365     1  0.0000000  0.6508444  3
   2360   2359   2362   2363     1  0.0000000  0.6508444  3
   2360   2359   2362   2364     1  0.0000000  0.6508444  3
   2361   2359   2356   2386     1  0.0000000  1.0460000  1
   2361   2359   2356   2386     1  0.0000000  0.0000000  3
   2361   2359   2362   2365     1  0.0000000  0.6508444  3
   2361   2359   2362   2363     1  0.0000000  0.6508444  3
   2361   2359   2362   2364     1  0.0000000  0.6508444  3
   2362   2365   2366   2367     1  0.0000000  1.2552000  3
   2362   2365   2366   2368     1  0.0000000  1.2552000  3
   2362   2365   2376   2377     1  0.0000000  1.2552000  3
   2362   2365   2376   2378     1  0.0000000  1.2552000  3
   2363   2362   2365   2366     1  0.0000000  1.2552000  3
   2363   2362   2365   2376     1  0.0000000  1.2552000  3
   2364   2362   2365   2366     1  0.0000000  1.2552000  3
   2364   2362   2365   2376     1  0.0000000  1.2552000  3
   2365   2366   2369   2370     1  0.0000000  0.6508444  3
   2365   2366   2369   2371     1  0.0000000  0.6508444  3
   2365   2376   2379   2380     1  0.0000000  0.6508444  3
   2365   2376   2379   2381     1  0.0000000  0.6508444  3
   2366   2365   2376   2377     1  0.0000000  1.2552000  3
   2366   2365   2376   2378     1  0.0000000  1.2552000  3
   2367   2366   2365   2376     1  0.0000000  1.2552000  3
   2367   2366   2369   2372     1  0.0000000  0.6508444  3
   2367   2366   2369   2370     1  0.0000000  0.6508444  3
   2367   2366   2369   2371     1  0.0000000  0.6508444  3
   2368   2366   2365   2376     1  0.0000000  1.2552000  3
   2368   2366   2369   2372     1  0.0000000  0.6508444  3
   2368   2366   2369   2370     1  0.0000000  0.6508444  3
   2368   2366   2369   2371     1  0.0000000  0.6508444  3
   2369   2372   2374   2375     1  180.0000771  9.6232000  2
   2370   2369   2372   2373     1  0.0000000  3.3472000  1
   2370   2369   2372   2373     1  0.0000000  0.0000000  2
   2370   2369   2372   2373     1  180.0000771  0.3347200  3
   2370   2369   2372   2374     1  180.0000771  0.0000000  2
   2371   2369   2372   2373     1  0.0000000  3.3472000  1
   2371   2369   2372   2373     1  0.0000000  0.0000000  2
   2371   2369   2372   2373     1  180.0000771  0.3347200  3
   2371   2369   2372   2374     1  180.0000771  0.0000000  2
   2373   2372   2374   2375     1  0.0000000  7.9496000  1
   2373   2372   2374   2375     1  180.0000771  9.6232000  2
   2377   2376   2379   2382     1  0.0000000  0.6508444  3
   2377   2376   2379   2380     1  0.0000000  0.6508444  3
   2377   2376   2379   2381     1  0.0000000  0.6508444  3
   2378   2376   2379   2382     1  0.0000000  0.6508444  3
   2378   2376   2379   2380     1  0.0000000  0.6508444  3
   2378   2376   2379   2381     1  0.0000000  0.6508444  3
   2379   2382   2384   2385     1  180.0000771  9.6232000  2
   2380   2379   2382   2383     1  0.0000000  3.3472000  1
   2380   2379   2382   2383     1  0.0000000  0.0000000  2
   2380   2379   2382   2383     1  180.0000771  0.3347200  3
   2380   2379   2382   2384     1  180.0000771  0.0000000  2
   2381   2379   2382   2383     1  0.0000000  3.3472000  1
   2381   2379   2382   2383     1  0.0000000  0.0000000  2
   2381   2379   2382   2383     1  180.0000771  0.3347200  3
   2381   2379   2382   2384     1  180.0000771  0.0000000  2
   2383   2382   2384   2385     1  0.0000000  7.9496000  1
   2383   2382   2384   2385     1  180.0000771  9.6232000  2
   2387   2390   2393   2394     1  0.0000000  0.6508444  3
   2387   2390   2393   2395     1  0.0000000  0.6508444  3
   2388   2387   2390   2393     1  0.0000000  0.6508444  3
   2388   2387   2390   2391     1  0.0000000  0.6508444  3
   2388   2387   2390   2392     1  0.0000000  0.6508444  3
   2389   2387   2390   2393     1  0.0000000  0.6508444  3
   2389   2387   2390   2391     1  0.0000000  0.6508444  3
   2389   2387   2390   2392     1  0.0000000  0.6508444  3
   2391   2390   2393   2396     1  0.0000000  0.6508444  3
   2391   2390   2393   2394     1  0.0000000  0.6508444  3
   2391   2390   2393   2395     1  0.0000000  0.6508444  3
   2391   2390   2387   2417     1  0.0000000  1.0460000  1
   2391   2390   2387   2417     1  0.0000000  0.0000000  3
   2392   2390   2393   2396     1  0.0000000  0.6508444  3
   2392   2390   2393   2394     1  0.0000000  0.6508444  3
   2392   2390   2393   2395     1  0.0000000  0.6508444  3
   2392   2390   2387   2417     1  0.0000000  1.0460000  1
   2392   2390   2387   2417     1  0.0000000  0.0000000  3
   2393   2396   2397   2398     1  0.0000000  1.2552000  3
   2393   2396   2397   2399     1  0.0000000  1.2552000  3
   2393   2396   2407   2408     1  0.0000000  1.2552000  3
   2393   2396   2407   2409     1  0.0000000  1.2552000  3
   2394   2393   2396   2397     1  0.0000000  1.2552000  3
   2394   2393   2396   2407     1  0.0000000  1.2552000  3
   2395   2393   2396   2397     1  0.0000000  1.2552000  3
   2395   2393   2396   2407     1  0.0000000  1.2552000  3
   2396   2397   2400   2401     1  0.0000000  0.6508444  3
   2396   2397   2400   2402     1  0.0000000  0.6508444  3
   2396   2407   2410   2411     1  0.0000000  0.6508444  3
   2396   2407   2410   2412     1  0.0000000  0.6508444  3
   2397   2396   2407   2408     1  0.0000000  1.2552000  3
   2397   2396   2407   2409     1  0.0000000  1.2552000  3
   2398   2397   2400   2403     1  0.0000000  0.6508444  3
   2398   2397   2400   2401     1  0.0000000  0.6508444  3
   2398   2397   2400   2402     1  0.0000000  0.6508444  3
   2398   2397   2396   2407     1  0.0000000  1.2552000  3
   2399   2397   2400   2403     1  0.0000000  0.6508444  3
   2399   2397   2400   2401     1  0.0000000  0.6508444  3
   2399   2397   2400   2402     1  0.0000000  0.6508444  3
   2399   2397   2396   2407     1  0.0000000  1.2552000  3
   2400   2403   2405   2406     1  180.0000771  9.6232000  2
   2401   2400   2403   2404     1  0.0000000  3.3472000  1
   2401   2400   2403   2404     1  0.0000000  0.0000000  2
   2401   2400   2403   2404     1  180.0000771  0.3347200  3
   2401   2400   2403   2405     1  180.0000771  0.0000000  2
   2402   2400   2403   2404     1  0.0000000  3.3472000  1
   2402   2400   2403   2404     1  0.0000000  0.0000000  2
   2402   2400   2403   2404     1  180.0000771  0.3347200  3
   2402   2400   2403   2405     1  180.0000771  0.0000000  2
   2404   2403   2405   2406     1  0.0000000  7.9496000  1
   2404   2403   2405   2406     1  180.0000771  9.6232000  2
   2408   2407   2410   2413     1  0.0000000  0.6508444  3
   2408   2407   2410   2411     1  0.0000000  0.6508444  3
   2408   2407   2410   2412     1  0.0000000  0.6508444  3
   2409   2407   2410   2413     1  0.0000000  0.6508444  3
   2409   2407   2410   2411     1  0.0000000  0.6508444  3
   2409   2407   2410   2412     1  0.0000000  0.6508444  3
   2410   2413   2415   2416     1  180.0000771  9.6232000  2
   2411   2410   2413   2414     1  0.0000000  3.3472000  1
   2411   2410   2413   2414     1  0.0000000  0.0000000  2
   2411   2410   2413   2414     1  180.0000771  0.3347200  3
   2411   2410   2413   2415     1  180.0000771  0.0000000  2
   2412   2410   2413   2414     1  0.0000000  3.3472000  1
   2412   2410   2413   2414     1  0.0000000  0.0000000  2
   2412   2410   2413   2414     1  180.0000771  0.3347200  3
   2412   2410   2413   2415     1  180.0000771  0.0000000  2
   2414   2413   2415   2416     1  0.0000000  7.9496000  1
   2414   2413   2415   2416     1  180.0000771  9.6232000  2
   2418   2421   2424   2425     1  0.0000000  0.6508444  3
   2418   2421   2424   2426     1  0.0000000  0.6508444  3
   2419   2418   2421   2424     1  0.0000000  0.6508444  3
   2419   2418   2421   2422     1  0.0000000  0.6508444  3
   2419   2418   2421   2423     1  0.0000000  0.6508444  3
   2420   2418   2421   2424     1  0.0000000  0.6508444  3
   2420   2418   2421   2422     1  0.0000000  0.6508444  3
   2420   2418   2421   2423     1  0.0000000  0.6508444  3
   2422   2421   2418   2448     1  0.0000000  1.0460000  1
   2422   2421   2418   2448     1  0.0000000  0.0000000  3
   2422   2421   2424   2427     1  0.0000000  0.6508444  3
   2422   2421   2424   2425     1  0.0000000  0.6508444  3
   2422   2421   2424   2426     1  0.0000000  0.6508444  3
   2423   2421   2418   2448     1  0.0000000  1.0460000  1
   2423   2421   2418   2448     1  0.0000000  0.0000000  3
   2423   2421   2424   2427     1  0.0000000  0.6508444  3
   2423   2421   2424   2425     1  0.0000000  0.6508444  3
   2423   2421   2424   2426     1  0.0000000  0.6508444  3
   2424   2427   2428   2429     1  0.0000000  1.2552000  3
   2424   2427   2428   2430     1  0.0000000  1.2552000  3
   2424   2427   2438   2439     1  0.0000000  1.2552000  3
   2424   2427   2438   2440     1  0.0000000  1.2552000  3
   2425   2424   2427   2428     1  0.0000000  1.2552000  3
   2425   2424   2427   2438     1  0.0000000  1.2552000  3
   2426   2424   2427   2428     1  0.0000000  1.2552000  3
   2426   2424   2427   2438     1  0.0000000  1.2552000  3
   2427   2428   2431   2432     1  0.0000000  0.6508444  3
   2427   2428   2431   2433     1  0.0000000  0.6508444  3
   2427   2438   2441   2442     1  0.0000000  0.6508444  3
   2427   2438   2441   2443     1  0.0000000  0.6508444  3
   2428   2427   2438   2439     1  0.0000000  1.2552000  3
   2428   2427   2438   2440     1  0.0000000  1.2552000  3
   2429   2428   2427   2438     1  0.0000000  1.2552000  3
   2429   2428   2431   2434     1  0.0000000  0.6508444  3
   2429   2428   2431   2432     1  0.0000000  0.6508444  3
   2429   2428   2431   2433     1  0.0000000  0.6508444  3
   2430   2428   2427   2438     1  0.0000000  1.2552000  3
   2430   2428   2431   2434     1  0.0000000  0.6508444  3
   2430   2428   2431   2432     1  0.0000000  0.6508444  3
   2430   2428   2431   2433     1  0.0000000  0.6508444  3
   2431   2434   2436   2437     1  180.0000771  9.6232000  2
   2432   2431   2434   2435     1  0.0000000  3.3472000  1
   2432   2431   2434   2435     1  0.0000000  0.0000000  2
   2432   2431   2434   2435     1  180.0000771  0.3347200  3
   2432   2431   2434   2436     1  180.0000771  0.0000000  2
   2433   2431   2434   2435     1  0.0000000  3.3472000  1
   2433   2431   2434   2435     1  0.0000000  0.0000000  2
   2433   2431   2434   2435     1  180.0000771  0.3347200  3
   2433   2431   2434   2436     1  180.0000771  0.0000000  2
   2435   2434   2436   2437     1  0.0000000  7.9496000  1
   2435   2434   2436   2437     1  180.0000771  9.6232000  2
   2439   2438   2441   2444     1  0.0000000  0.6508444  3
   2439   2438   2441   2442     1  0.0000000  0.6508444  3
   2439   2438   2441   2443     1  0.0000000  0.6508444  3
   2440   2438   2441   2444     1  0.0000000  0.6508444  3
   2440   2438   2441   2442     1  0.0000000  0.6508444  3
   2440   2438   2441   2443     1  0.0000000  0.6508444  3
   2441   2444   2446   2447     1  180.0000771  9.6232000  2
   2442   2441   2444   2445     1  0.0000000  3.3472000  1
   2442   2441   2444   2445     1  0.0000000  0.0000000  2
   2442   2441   2444   2445     1  180.0000771  0.3347200  3
   2442   2441   2444   2446     1  180.0000771  0.0000000  2
   2443   2441   2444   2445     1  0.0000000  3.3472000  1
   2443   2441   2444   2445     1  0.0000000  0.0000000  2
   2443   2441   2444   2445     1  180.0000771  0.3347200  3
   2443   2441   2444   2446     1  180.0000771  0.0000000  2
   2445   2444   2446   2447     1  0.0000000  7.9496000  1
   2445   2444   2446   2447     1  180.0000771  9.6232000  2
   2449   2452   2455   2456     1  0.0000000  0.6508444  3
   2449   2452   2455   2457     1  0.0000000  0.6508444  3
   2450   2449   2452   2455     1  0.0000000  0.6508444  3
   2450   2449   2452   2453     1  0.0000000  0.6508444  3
   2450   2449   2452   2454     1  0.0000000  0.6508444  3
   2451   2449   2452   2455     1  0.0000000  0.6508444  3
   2451   2449   2452   2453     1  0.0000000  0.6508444  3
   2451   2449   2452   2454     1  0.0000000  0.6508444  3
   2453   2452   2455   2458     1  0.0000000  0.6508444  3
   2453   2452   2455   2456     1  0.0000000  0.6508444  3
   2453   2452   2455   2457     1  0.0000000  0.6508444  3
   2453   2452   2449   2479     1  0.0000000  1.0460000  1
   2453   2452   2449   2479     1  0.0000000  0.0000000  3
   2454   2452   2455   2458     1  0.0000000  0.6508444  3
   2454   2452   2455   2456     1  0.0000000  0.6508444  3
   2454   2452   2455   2457     1  0.0000000  0.6508444  3
   2454   2452   2449   2479     1  0.0000000  1.0460000  1
   2454   2452   2449   2479     1  0.0000000  0.0000000  3
   2455   2458   2459   2460     1  0.0000000  1.2552000  3
   2455   2458   2459   2461     1  0.0000000  1.2552000  3
   2455   2458   2469   2470     1  0.0000000  1.2552000  3
   2455   2458   2469   2471     1  0.0000000  1.2552000  3
   2456   2455   2458   2459     1  0.0000000  1.2552000  3
   2456   2455   2458   2469     1  0.0000000  1.2552000  3
   2457   2455   2458   2459     1  0.0000000  1.2552000  3
   2457   2455   2458   2469     1  0.0000000  1.2552000  3
   2458   2459   2462   2463     1  0.0000000  0.6508444  3
   2458   2459   2462   2464     1  0.0000000  0.6508444  3
   2458   2469   2472   2473     1  0.0000000  0.6508444  3
   2458   2469   2472   2474     1  0.0000000  0.6508444  3
   2459   2458   2469   2470     1  0.0000000  1.2552000  3
   2459   2458   2469   2471     1  0.0000000  1.2552000  3
   2460   2459   2462   2465     1  0.0000000  0.6508444  3
   2460   2459   2462   2463     1  0.0000000  0.6508444  3
   2460   2459   2462   2464     1  0.0000000  0.6508444  3
   2460   2459   2458   2469     1  0.0000000  1.2552000  3
   2461   2459   2462   2465     1  0.0000000  0.6508444  3
   2461   2459   2462   2463     1  0.0000000  0.6508444  3
   2461   2459   2462   2464     1  0.0000000  0.6508444  3
   2461   2459   2458   2469     1  0.0000000  1.2552000  3
   2462   2465   2467   2468     1  180.0000771  9.6232000  2
   2463   2462   2465   2466     1  0.0000000  3.3472000  1
   2463   2462   2465   2466     1  0.0000000  0.0000000  2
   2463   2462   2465   2466     1  180.0000771  0.3347200  3
   2463   2462   2465   2467     1  180.0000771  0.0000000  2
   2464   2462   2465   2466     1  0.0000000  3.3472000  1
   2464   2462   2465   2466     1  0.0000000  0.0000000  2
   2464   2462   2465   2466     1  180.0000771  0.3347200  3
   2464   2462   2465   2467     1  180.0000771  0.0000000  2
   2466   2465   2467   2468     1  0.0000000  7.9496000  1
   2466   2465   2467   2468     1  180.0000771  9.6232000  2
   2470   2469   2472   2475     1  0.0000000  0.6508444  3
   2470   2469   2472   2473     1  0.0000000  0.6508444  3
   2470   2469   2472   2474     1  0.0000000  0.6508444  3
   2471   2469   2472   2475     1  0.0000000  0.6508444  3
   2471   2469   2472   2473     1  0.0000000  0.6508444  3
   2471   2469   2472   2474     1  0.0000000  0.6508444  3
   2472   2475   2477   2478     1  180.0000771  9.6232000  2
   2473   2472   2475   2476     1  0.0000000  3.3472000  1
   2473   2472   2475   2476     1  0.0000000  0.0000000  2
   2473   2472   2475   2476     1  180.0000771  0.3347200  3
   2473   2472   2475   2477     1  180.0000771  0.0000000  2
   2474   2472   2475   2476     1  0.0000000  3.3472000  1
   2474   2472   2475   2476     1  0.0000000  0.0000000  2
   2474   2472   2475   2476     1  180.0000771  0.3347200  3
   2474   2472   2475   2477     1  180.0000771  0.0000000  2
   2476   2475   2477   2478     1  0.0000000  7.9496000  1
   2476   2475   2477   2478     1  180.0000771  9.6232000  2
   2480   2483   2486   2487     1  0.0000000  0.6508444  3
   2480   2483   2486   2488     1  0.0000000  0.6508444  3
   2481   2480   2483   2486     1  0.0000000  0.6508444  3
   2481   2480   2483   2484     1  0.0000000  0.6508444  3
   2481   2480   2483   2485     1  0.0000000  0.6508444  3
   2482   2480   2483   2486     1  0.0000000  0.6508444  3
   2482   2480   2483   2484     1  0.0000000  0.6508444  3
   2482   2480   2483   2485     1  0.0000000  0.6508444  3
   2484   2483   2480   2510     1  0.0000000  1.0460000  1
   2484   2483   2480   2510     1  0.0000000  0.0000000  3
   2484   2483   2486   2489     1  0.0000000  0.6508444  3
   2484   2483   2486   2487     1  0.0000000  0.6508444  3
   2484   2483   2486   2488     1  0.0000000  0.6508444  3
   2485   2483   2480   2510     1  0.0000000  1.0460000  1
   2485   2483   2480   2510     1  0.0000000  0.0000000  3
   2485   2483   2486   2489     1  0.0000000  0.6508444  3
   2485   2483   2486   2487     1  0.0000000  0.6508444  3
   2485   2483   2486   2488     1  0.0000000  0.6508444  3
   2486   2489   2490   2491     1  0.0000000  1.2552000  3
   2486   2489   2490   2492     1  0.0000000  1.2552000  3
   2486   2489   2500   2501     1  0.0000000  1.2552000  3
   2486   2489   2500   2502     1  0.0000000  1.2552000  3
   2487   2486   2489   2490     1  0.0000000  1.2552000  3
   2487   2486   2489   2500     1  0.0000000  1.2552000  3
   2488   2486   2489   2490     1  0.0000000  1.2552000  3
   2488   2486   2489   2500     1  0.0000000  1.2552000  3
   2489   2490   2493   2494     1  0.0000000  0.6508444  3
   2489   2490   2493   2495     1  0.0000000  0.6508444  3
   2489   2500   2503   2504     1  0.0000000  0.6508444  3
   2489   2500   2503   2505     1  0.0000000  0.6508444  3
   2490   2489   2500   2501     1  0.0000000  1.2552000  3
   2490   2489   2500   2502     1  0.0000000  1.2552000  3
   2491   2490   2489   2500     1  0.0000000  1.2552000  3
   2491   2490   2493   2496     1  0.0000000  0.6508444  3
   2491   2490   2493   2494     1  0.0000000  0.6508444  3
   2491   2490   2493   2495     1  0.0000000  0.6508444  3
   2492   2490   2489   2500     1  0.0000000  1.2552000  3
   2492   2490   2493   2496     1  0.0000000  0.6508444  3
   2492   2490   2493   2494     1  0.0000000  0.6508444  3
   2492   2490   2493   2495     1  0.0000000  0.6508444  3
   2493   2496   2498   2499     1  180.0000771  9.6232000  2
   2494   2493   2496   2497     1  0.0000000  3.3472000  1
   2494   2493   2496   2497     1  0.0000000  0.0000000  2
   2494   2493   2496   2497     1  180.0000771  0.3347200  3
   2494   2493   2496   2498     1  180.0000771  0.0000000  2
   2495   2493   2496   2497     1  0.0000000  3.3472000  1
   2495   2493   2496   2497     1  0.0000000  0.0000000  2
   2495   2493   2496   2497     1  180.0000771  0.3347200  3
   2495   2493   2496   2498     1  180.0000771  0.0000000  2
   2497   2496   2498   2499     1  0.0000000  7.9496000  1
   2497   2496   2498   2499     1  180.0000771  9.6232000  2
   2501   2500   2503   2506     1  0.0000000  0.6508444  3
   2501   2500   2503   2504     1  0.0000000  0.6508444  3
   2501   2500   2503   2505     1  0.0000000  0.6508444  3
   2502   2500   2503   2506     1  0.0000000  0.6508444  3
   2502   2500   2503   2504     1  0.0000000  0.6508444  3
   2502   2500   2503   2505     1  0.0000000  0.6508444  3
   2503   2506   2508   2509     1  180.0000771  9.6232000  2
   2504   2503   2506   2507     1  0.0000000  3.3472000  1
   2504   2503   2506   2507     1  0.0000000  0.0000000  2
   2504   2503   2506   2507     1  180.0000771  0.3347200  3
   2504   2503   2506   2508     1  180.0000771  0.0000000  2
   2505   2503   2506   2507     1  0.0000000  3.3472000  1
   2505   2503   2506   2507     1  0.0000000  0.0000000  2
   2505   2503   2506   2507     1  180.0000771  0.3347200  3
   2505   2503   2506   2508     1  180.0000771  0.0000000  2
   2507   2506   2508   2509     1  0.0000000  7.9496000  1
   2507   2506   2508   2509     1  180.0000771  9.6232000  2
   2511   2514   2517   2518     1  0.0000000  0.6508444  3
   2511   2514   2517   2519     1  0.0000000  0.6508444  3
   2512   2511   2514   2517     1  0.0000000  0.6508444  3
   2512   2511   2514   2515     1  0.0000000  0.6508444  3
   2512   2511   2514   2516     1  0.0000000  0.6508444  3
   2513   2511   2514   2517     1  0.0000000  0.6508444  3
   2513   2511   2514   2515     1  0.0000000  0.6508444  3
   2513   2511   2514   2516     1  0.0000000  0.6508444  3
   2515   2514   2517   2520     1  0.0000000  0.6508444  3
   2515   2514   2517   2518     1  0.0000000  0.6508444  3
   2515   2514   2517   2519     1  0.0000000  0.6508444  3
   2515   2514   2511   2541     1  0.0000000  1.0460000  1
   2515   2514   2511   2541     1  0.0000000  0.0000000  3
   2516   2514   2517   2520     1  0.0000000  0.6508444  3
   2516   2514   2517   2518     1  0.0000000  0.6508444  3
   2516   2514   2517   2519     1  0.0000000  0.6508444  3
   2516   2514   2511   2541     1  0.0000000  1.0460000  1
   2516   2514   2511   2541     1  0.0000000  0.0000000  3
   2517   2520   2521   2522     1  0.0000000  1.2552000  3
   2517   2520   2521   2523     1  0.0000000  1.2552000  3
   2517   2520   2531   2532     1  0.0000000  1.2552000  3
   2517   2520   2531   2533     1  0.0000000  1.2552000  3
   2518   2517   2520   2521     1  0.0000000  1.2552000  3
   2518   2517   2520   2531     1  0.0000000  1.2552000  3
   2519   2517   2520   2521     1  0.0000000  1.2552000  3
   2519   2517   2520   2531     1  0.0000000  1.2552000  3
   2520   2521   2524   2525     1  0.0000000  0.6508444  3
   2520   2521   2524   2526     1  0.0000000  0.6508444  3
   2520   2531   2534   2535     1  0.0000000  0.6508444  3
   2520   2531   2534   2536     1  0.0000000  0.6508444  3
   2521   2520   2531   2532     1  0.0000000  1.2552000  3
   2521   2520   2531   2533     1  0.0000000  1.2552000  3
   2522   2521   2524   2527     1  0.0000000  0.6508444  3
   2522   2521   2524   2525     1  0.0000000  0.6508444  3
   2522   2521   2524   2526     1  0.0000000  0.6508444  3
   2522   2521   2520   2531     1  0.0000000  1.2552000  3
   2523   2521   2524   2527     1  0.0000000  0.6508444  3
   2523   2521   2524   2525     1  0.0000000  0.6508444  3
   2523   2521   2524   2526     1  0.0000000  0.6508444  3
   2523   2521   2520   2531     1  0.0000000  1.2552000  3
   2524   2527   2529   2530     1  180.0000771  9.6232000  2
   2525   2524   2527   2528     1  0.0000000  3.3472000  1
   2525   2524   2527   2528     1  0.0000000  0.0000000  2
   2525   2524   2527   2528     1  180.0000771  0.3347200  3
   2525   2524   2527   2529     1  180.0000771  0.0000000  2
   2526   2524   2527   2528     1  0.0000000  3.3472000  1
   2526   2524   2527   2528     1  0.0000000  0.0000000  2
   2526   2524   2527   2528     1  180.0000771  0.3347200  3
   2526   2524   2527   2529     1  180.0000771  0.0000000  2
   2528   2527   2529   2530     1  0.0000000  7.9496000  1
   2528   2527   2529   2530     1  180.0000771  9.6232000  2
   2532   2531   2534   2537     1  0.0000000  0.6508444  3
   2532   2531   2534   2535     1  0.0000000  0.6508444  3
   2532   2531   2534   2536     1  0.0000000  0.6508444  3
   2533   2531   2534   2537     1  0.0000000  0.6508444  3
   2533   2531   2534   2535     1  0.0000000  0.6508444  3
   2533   2531   2534   2536     1  0.0000000  0.6508444  3
   2534   2537   2539   2540     1  180.0000771  9.6232000  2
   2535   2534   2537   2538     1  0.0000000  3.3472000  1
   2535   2534   2537   2538     1  0.0000000  0.0000000  2
   2535   2534   2537   2538     1  180.0000771  0.3347200  3
   2535   2534   2537   2539     1  180.0000771  0.0000000  2
   2536   2534   2537   2538     1  0.0000000  3.3472000  1
   2536   2534   2537   2538     1  0.0000000  0.0000000  2
   2536   2534   2537   2538     1  180.0000771  0.3347200  3
   2536   2534   2537   2539     1  180.0000771  0.0000000  2
   2538   2537   2539   2540     1  0.0000000  7.9496000  1
   2538   2537   2539   2540     1  180.0000771  9.6232000  2
   2542   2545   2548   2549     1  0.0000000  0.6508444  3
   2542   2545   2548   2550     1  0.0000000  0.6508444  3
   2543   2542   2545   2548     1  0.0000000  0.6508444  3
   2543   2542   2545   2546     1  0.0000000  0.6508444  3
   2543   2542   2545   2547     1  0.0000000  0.6508444  3
   2544   2542   2545   2548     1  0.0000000  0.6508444  3
   2544   2542   2545   2546     1  0.0000000  0.6508444  3
   2544   2542   2545   2547     1  0.0000000  0.6508444  3
   2546   2545   2542   2572     1  0.0000000  1.0460000  1
   2546   2545   2542   2572     1  0.0000000  0.0000000  3
   2546   2545   2548   2551     1  0.0000000  0.6508444  3
   2546   2545   2548   2549     1  0.0000000  0.6508444  3
   2546   2545   2548   2550     1  0.0000000  0.6508444  3
   2547   2545   2542   2572     1  0.0000000  1.0460000  1
   2547   2545   2542   2572     1  0.0000000  0.0000000  3
   2547   2545   2548   2551     1  0.0000000  0.6508444  3
   2547   2545   2548   2549     1  0.0000000  0.6508444  3
   2547   2545   2548   2550     1  0.0000000  0.6508444  3
   2548   2551   2552   2553     1  0.0000000  1.2552000  3
   2548   2551   2552   2554     1  0.0000000  1.2552000  3
   2548   2551   2562   2563     1  0.0000000  1.2552000  3
   2548   2551   2562   2564     1  0.0000000  1.2552000  3
   2549   2548   2551   2552     1  0.0000000  1.2552000  3
   2549   2548   2551   2562     1  0.0000000  1.2552000  3
   2550   2548   2551   2552     1  0.0000000  1.2552000  3
   2550   2548   2551   2562     1  0.0000000  1.2552000  3
   2551   2552   2555   2556     1  0.0000000  0.6508444  3
   2551   2552   2555   2557     1  0.0000000  0.6508444  3
   2551   2562   2565   2566     1  0.0000000  0.6508444  3
   2551   2562   2565   2567     1  0.0000000  0.6508444  3
   2552   2551   2562   2563     1  0.0000000  1.2552000  3
   2552   2551   2562   2564     1  0.0000000  1.2552000  3
   2553   2552   2551   2562     1  0.0000000  1.2552000  3
   2553   2552   2555   2558     1  0.0000000  0.6508444  3
   2553   2552   2555   2556     1  0.0000000  0.6508444  3
   2553   2552   2555   2557     1  0.0000000  0.6508444  3
   2554   2552   2551   2562     1  0.0000000  1.2552000  3
   2554   2552   2555   2558     1  0.0000000  0.6508444  3
   2554   2552   2555   2556     1  0.0000000  0.6508444  3
   2554   2552   2555   2557     1  0.0000000  0.6508444  3
   2555   2558   2560   2561     1  180.0000771  9.6232000  2
   2556   2555   2558   2559     1  0.0000000  3.3472000  1
   2556   2555   2558   2559     1  0.0000000  0.0000000  2
   2556   2555   2558   2559     1  180.0000771  0.3347200  3
   2556   2555   2558   2560     1  180.0000771  0.0000000  2
   2557   2555   2558   2559     1  0.0000000  3.3472000  1
   2557   2555   2558   2559     1  0.0000000  0.0000000  2
   2557   2555   2558   2559     1  180.0000771  0.3347200  3
   2557   2555   2558   2560     1  180.0000771  0.0000000  2
   2559   2558   2560   2561     1  0.0000000  7.9496000  1
   2559   2558   2560   2561     1  180.0000771  9.6232000  2
   2563   2562   2565   2568     1  0.0000000  0.6508444  3
   2563   2562   2565   2566     1  0.0000000  0.6508444  3
   2563   2562   2565   2567     1  0.0000000  0.6508444  3
   2564   2562   2565   2568     1  0.0000000  0.6508444  3
   2564   2562   2565   2566     1  0.0000000  0.6508444  3
   2564   2562   2565   2567     1  0.0000000  0.6508444  3
   2565   2568   2570   2571     1  180.0000771  9.6232000  2
   2566   2565   2568   2569     1  0.0000000  3.3472000  1
   2566   2565   2568   2569     1  0.0000000  0.0000000  2
   2566   2565   2568   2569     1  180.0000771  0.3347200  3
   2566   2565   2568   2570     1  180.0000771  0.0000000  2
   2567   2565   2568   2569     1  0.0000000  3.3472000  1
   2567   2565   2568   2569     1  0.0000000  0.0000000  2
   2567   2565   2568   2569     1  180.0000771  0.3347200  3
   2567   2565   2568   2570     1  180.0000771  0.0000000  2
   2569   2568   2570   2571     1  0.0000000  7.9496000  1
   2569   2568   2570   2571     1  180.0000771  9.6232000  2
   2573   2576   2579   2580     1  0.0000000  0.6508444  3
   2573   2576   2579   2581     1  0.0000000  0.6508444  3
   2574   2573   2576   2579     1  0.0000000  0.6508444  3
   2574   2573   2576   2577     1  0.0000000  0.6508444  3
   2574   2573   2576   2578     1  0.0000000  0.6508444  3
   2575   2573   2576   2579     1  0.0000000  0.6508444  3
   2575   2573   2576   2577     1  0.0000000  0.6508444  3
   2575   2573   2576   2578     1  0.0000000  0.6508444  3
   2577   2576   2579   2582     1  0.0000000  0.6508444  3
   2577   2576   2579   2580     1  0.0000000  0.6508444  3
   2577   2576   2579   2581     1  0.0000000  0.6508444  3
   2577   2576   2573   2603     1  0.0000000  1.0460000  1
   2577   2576   2573   2603     1  0.0000000  0.0000000  3
   2578   2576   2579   2582     1  0.0000000  0.6508444  3
   2578   2576   2579   2580     1  0.0000000  0.6508444  3
   2578   2576   2579   2581     1  0.0000000  0.6508444  3
   2578   2576   2573   2603     1  0.0000000  1.0460000  1
   2578   2576   2573   2603     1  0.0000000  0.0000000  3
   2579   2582   2583   2584     1  0.0000000  1.2552000  3
   2579   2582   2583   2585     1  0.0000000  1.2552000  3
   2579   2582   2593   2594     1  0.0000000  1.2552000  3
   2579   2582   2593   2595     1  0.0000000  1.2552000  3
   2580   2579   2582   2583     1  0.0000000  1.2552000  3
   2580   2579   2582   2593     1  0.0000000  1.2552000  3
   2581   2579   2582   2583     1  0.0000000  1.2552000  3
   2581   2579   2582   2593     1  0.0000000  1.2552000  3
   2582   2583   2586   2587     1  0.0000000  0.6508444  3
   2582   2583   2586   2588     1  0.0000000  0.6508444  3
   2582   2593   2596   2597     1  0.0000000  0.6508444  3
   2582   2593   2596   2598     1  0.0000000  0.6508444  3
   2583   2582   2593   2594     1  0.0000000  1.2552000  3
   2583   2582   2593   2595     1  0.0000000  1.2552000  3
   2584   2583   2586   2589     1  0.0000000  0.6508444  3
   2584   2583   2586   2587     1  0.0000000  0.6508444  3
   2584   2583   2586   2588     1  0.0000000  0.6508444  3
   2584   2583   2582   2593     1  0.0000000  1.2552000  3
   2585   2583   2586   2589     1  0.0000000  0.6508444  3
   2585   2583   2586   2587     1  0.0000000  0.6508444  3
   2585   2583   2586   2588     1  0.0000000  0.6508444  3
   2585   2583   2582   2593     1  0.0000000  1.2552000  3
   2586   2589   2591   2592     1  180.0000771  9.6232000  2
   2587   2586   2589   2590     1  0.0000000  3.3472000  1
   2587   2586   2589   2590     1  0.0000000  0.0000000  2
   2587   2586   2589   2590     1  180.0000771  0.3347200  3
   2587   2586   2589   2591     1  180.0000771  0.0000000  2
   2588   2586   2589   2590     1  0.0000000  3.3472000  1
   2588   2586   2589   2590     1  0.0000000  0.0000000  2
   2588   2586   2589   2590     1  180.0000771  0.3347200  3
   2588   2586   2589   2591     1  180.0000771  0.0000000  2
   2590   2589   2591   2592     1  0.0000000  7.9496000  1
   2590   2589   2591   2592     1  180.0000771  9.6232000  2
   2594   2593   2596   2599     1  0.0000000  0.6508444  3
   2594   2593   2596   2597     1  0.0000000  0.6508444  3
   2594   2593   2596   2598     1  0.0000000  0.6508444  3
   2595   2593   2596   2599     1  0.0000000  0.6508444  3
   2595   2593   2596   2597     1  0.0000000  0.6508444  3
   2595   2593   2596   2598     1  0.0000000  0.6508444  3
   2596   2599   2601   2602     1  180.0000771  9.6232000  2
   2597   2596   2599   2600     1  0.0000000  3.3472000  1
   2597   2596   2599   2600     1  0.0000000  0.0000000  2
   2597   2596   2599   2600     1  180.0000771  0.3347200  3
   2597   2596   2599   2601     1  180.0000771  0.0000000  2
   2598   2596   2599   2600     1  0.0000000  3.3472000  1
   2598   2596   2599   2600     1  0.0000000  0.0000000  2
   2598   2596   2599   2600     1  180.0000771  0.3347200  3
   2598   2596   2599   2601     1  180.0000771  0.0000000  2
   2600   2599   2601   2602     1  0.0000000  7.9496000  1
   2600   2599   2601   2602     1  180.0000771  9.6232000  2
   2604   2607   2610   2611     1  0.0000000  0.6508444  3
   2604   2607   2610   2612     1  0.0000000  0.6508444  3
   2605   2604   2607   2610     1  0.0000000  0.6508444  3
   2605   2604   2607   2608     1  0.0000000  0.6508444  3
   2605   2604   2607   2609     1  0.0000000  0.6508444  3
   2606   2604   2607   2610     1  0.0000000  0.6508444  3
   2606   2604   2607   2608     1  0.0000000  0.6508444  3
   2606   2604   2607   2609     1  0.0000000  0.6508444  3
   2608   2607   2604   2634     1  0.0000000  1.0460000  1
   2608   2607   2604   2634     1  0.0000000  0.0000000  3
   2608   2607   2610   2613     1  0.0000000  0.6508444  3
   2608   2607   2610   2611     1  0.0000000  0.6508444  3
   2608   2607   2610   2612     1  0.0000000  0.6508444  3
   2609   2607   2604   2634     1  0.0000000  1.0460000  1
   2609   2607   2604   2634     1  0.0000000  0.0000000  3
   2609   2607   2610   2613     1  0.0000000  0.6508444  3
   2609   2607   2610   2611     1  0.0000000  0.6508444  3
   2609   2607   2610   2612     1  0.0000000  0.6508444  3
   2610   2613   2614   2615     1  0.0000000  1.2552000  3
   2610   2613   2614   2616     1  0.0000000  1.2552000  3
   2610   2613   2624   2625     1  0.0000000  1.2552000  3
   2610   2613   2624   2626     1  0.0000000  1.2552000  3
   2611   2610   2613   2614     1  0.0000000  1.2552000  3
   2611   2610   2613   2624     1  0.0000000  1.2552000  3
   2612   2610   2613   2614     1  0.0000000  1.2552000  3
   2612   2610   2613   2624     1  0.0000000  1.2552000  3
   2613   2614   2617   2618     1  0.0000000  0.6508444  3
   2613   2614   2617   2619     1  0.0000000  0.6508444  3
   2613   2624   2627   2628     1  0.0000000  0.6508444  3
   2613   2624   2627   2629     1  0.0000000  0.6508444  3
   2614   2613   2624   2625     1  0.0000000  1.2552000  3
   2614   2613   2624   2626     1  0.0000000  1.2552000  3
   2615   2614   2613   2624     1  0.0000000  1.2552000  3
   2615   2614   2617   2620     1  0.0000000  0.6508444  3
   2615   2614   2617   2618     1  0.0000000  0.6508444  3
   2615   2614   2617   2619     1  0.0000000  0.6508444  3
   2616   2614   2613   2624     1  0.0000000  1.2552000  3
   2616   2614   2617   2620     1  0.0000000  0.6508444  3
   2616   2614   2617   2618     1  0.0000000  0.6508444  3
   2616   2614   2617   2619     1  0.0000000  0.6508444  3
   2617   2620   2622   2623     1  180.0000771  9.6232000  2
   2618   2617   2620   2621     1  0.0000000  3.3472000  1
   2618   2617   2620   2621     1  0.0000000  0.0000000  2
   2618   2617   2620   2621     1  180.0000771  0.3347200  3
   2618   2617   2620   2622     1  180.0000771  0.0000000  2
   2619   2617   2620   2621     1  0.0000000  3.3472000  1
   2619   2617   2620   2621     1  0.0000000  0.0000000  2
   2619   2617   2620   2621     1  180.0000771  0.3347200  3
   2619   2617   2620   2622     1  180.0000771  0.0000000  2
   2621   2620   2622   2623     1  0.0000000  7.9496000  1
   2621   2620   2622   2623     1  180.0000771  9.6232000  2
   2625   2624   2627   2630     1  0.0000000  0.6508444  3
   2625   2624   2627   2628     1  0.0000000  0.6508444  3
   2625   2624   2627   2629     1  0.0000000  0.6508444  3
   2626   2624   2627   2630     1  0.0000000  0.6508444  3
   2626   2624   2627   2628     1  0.0000000  0.6508444  3
   2626   2624   2627   2629     1  0.0000000  0.6508444  3
   2627   2630   2632   2633     1  180.0000771  9.6232000  2
   2628   2627   2630   2631     1  0.0000000  3.3472000  1
   2628   2627   2630   2631     1  0.0000000  0.0000000  2
   2628   2627   2630   2631     1  180.0000771  0.3347200  3
   2628   2627   2630   2632     1  180.0000771  0.0000000  2
   2629   2627   2630   2631     1  0.0000000  3.3472000  1
   2629   2627   2630   2631     1  0.0000000  0.0000000  2
   2629   2627   2630   2631     1  180.0000771  0.3347200  3
   2629   2627   2630   2632     1  180.0000771  0.0000000  2
   2631   2630   2632   2633     1  0.0000000  7.9496000  1
   2631   2630   2632   2633     1  180.0000771  9.6232000  2
   2635   2638   2641   2642     1  0.0000000  0.6508444  3
   2635   2638   2641   2643     1  0.0000000  0.6508444  3
   2636   2635   2638   2641     1  0.0000000  0.6508444  3
   2636   2635   2638   2639     1  0.0000000  0.6508444  3
   2636   2635   2638   2640     1  0.0000000  0.6508444  3
   2637   2635   2638   2641     1  0.0000000  0.6508444  3
   2637   2635   2638   2639     1  0.0000000  0.6508444  3
   2637   2635   2638   2640     1  0.0000000  0.6508444  3
   2639   2638   2641   2644     1  0.0000000  0.6508444  3
   2639   2638   2641   2642     1  0.0000000  0.6508444  3
   2639   2638   2641   2643     1  0.0000000  0.6508444  3
   2639   2638   2635   2665     1  0.0000000  1.0460000  1
   2639   2638   2635   2665     1  0.0000000  0.0000000  3
   2640   2638   2641   2644     1  0.0000000  0.6508444  3
   2640   2638   2641   2642     1  0.0000000  0.6508444  3
   2640   2638   2641   2643     1  0.0000000  0.6508444  3
   2640   2638   2635   2665     1  0.0000000  1.0460000  1
   2640   2638   2635   2665     1  0.0000000  0.0000000  3
   2641   2644   2645   2646     1  0.0000000  1.2552000  3
   2641   2644   2645   2647     1  0.0000000  1.2552000  3
   2641   2644   2655   2656     1  0.0000000  1.2552000  3
   2641   2644   2655   2657     1  0.0000000  1.2552000  3
   2642   2641   2644   2645     1  0.0000000  1.2552000  3
   2642   2641   2644   2655     1  0.0000000  1.2552000  3
   2643   2641   2644   2645     1  0.0000000  1.2552000  3
   2643   2641   2644   2655     1  0.0000000  1.2552000  3
   2644   2645   2648   2649     1  0.0000000  0.6508444  3
   2644   2645   2648   2650     1  0.0000000  0.6508444  3
   2644   2655   2658   2659     1  0.0000000  0.6508444  3
   2644   2655   2658   2660     1  0.0000000  0.6508444  3
   2645   2644   2655   2656     1  0.0000000  1.2552000  3
   2645   2644   2655   2657     1  0.0000000  1.2552000  3
   2646   2645   2648   2651     1  0.0000000  0.6508444  3
   2646   2645   2648   2649     1  0.0000000  0.6508444  3
   2646   2645   2648   2650     1  0.0000000  0.6508444  3
   2646   2645   2644   2655     1  0.0000000  1.2552000  3
   2647   2645   2648   2651     1  0.0000000  0.6508444  3
   2647   2645   2648   2649     1  0.0000000  0.6508444  3
   2647   2645   2648   2650     1  0.0000000  0.6508444  3
   2647   2645   2644   2655     1  0.0000000  1.2552000  3
   2648   2651   2653   2654     1  180.0000771  9.6232000  2
   2649   2648   2651   2652     1  0.0000000  3.3472000  1
   2649   2648   2651   2652     1  0.0000000  0.0000000  2
   2649   2648   2651   2652     1  180.0000771  0.3347200  3
   2649   2648   2651   2653     1  180.0000771  0.0000000  2
   2650   2648   2651   2652     1  0.0000000  3.3472000  1
   2650   2648   2651   2652     1  0.0000000  0.0000000  2
   2650   2648   2651   2652     1  180.0000771  0.3347200  3
   2650   2648   2651   2653     1  180.0000771  0.0000000  2
   2652   2651   2653   2654     1  0.0000000  7.9496000  1
   2652   2651   2653   2654     1  180.0000771  9.6232000  2
   2656   2655   2658   2661     1  0.0000000  0.6508444  3
   2656   2655   2658   2659     1  0.0000000  0.6508444  3
   2656   2655   2658   2660     1  0.0000000  0.6508444  3
   2657   2655   2658   2661     1  0.0000000  0.6508444  3
   2657   2655   2658   2659     1  0.0000000  0.6508444  3
   2657   2655   2658   2660     1  0.0000000  0.6508444  3
   2658   2661   2663   2664     1  180.0000771  9.6232000  2
   2659   2658   2661   2662     1  0.0000000  3.3472000  1
   2659   2658   2661   2662     1  0.0000000  0.0000000  2
   2659   2658   2661   2662     1  180.0000771  0.3347200  3
   2659   2658   2661   2663     1  180.0000771  0.0000000  2
   2660   2658   2661   2662     1  0.0000000  3.3472000  1
   2660   2658   2661   2662     1  0.0000000  0.0000000  2
   2660   2658   2661   2662     1  180.0000771  0.3347200  3
   2660   2658   2661   2663     1  180.0000771  0.0000000  2
   2662   2661   2663   2664     1  0.0000000  7.9496000  1
   2662   2661   2663   2664     1  180.0000771  9.6232000  2
   2666   2669   2672   2673     1  0.0000000  0.6508444  3
   2666   2669   2672   2674     1  0.0000000  0.6508444  3
   2667   2666   2669   2672     1  0.0000000  0.6508444  3
   2667   2666   2669   2670     1  0.0000000  0.6508444  3
   2667   2666   2669   2671     1  0.0000000  0.6508444  3
   2668   2666   2669   2672     1  0.0000000  0.6508444  3
   2668   2666   2669   2670     1  0.0000000  0.6508444  3
   2668   2666   2669   2671     1  0.0000000  0.6508444  3
   2670   2669   2666   2696     1  0.0000000  1.0460000  1
   2670   2669   2666   2696     1  0.0000000  0.0000000  3
   2670   2669   2672   2675     1  0.0000000  0.6508444  3
   2670   2669   2672   2673     1  0.0000000  0.6508444  3
   2670   2669   2672   2674     1  0.0000000  0.6508444  3
   2671   2669   2666   2696     1  0.0000000  1.0460000  1
   2671   2669   2666   2696     1  0.0000000  0.0000000  3
   2671   2669   2672   2675     1  0.0000000  0.6508444  3
   2671   2669   2672   2673     1  0.0000000  0.6508444  3
   2671   2669   2672   2674     1  0.0000000  0.6508444  3
   2672   2675   2676   2677     1  0.0000000  1.2552000  3
   2672   2675   2676   2678     1  0.0000000  1.2552000  3
   2672   2675   2686   2687     1  0.0000000  1.2552000  3
   2672   2675   2686   2688     1  0.0000000  1.2552000  3
   2673   2672   2675   2676     1  0.0000000  1.2552000  3
   2673   2672   2675   2686     1  0.0000000  1.2552000  3
   2674   2672   2675   2676     1  0.0000000  1.2552000  3
   2674   2672   2675   2686     1  0.0000000  1.2552000  3
   2675   2676   2679   2680     1  0.0000000  0.6508444  3
   2675   2676   2679   2681     1  0.0000000  0.6508444  3
   2675   2686   2689   2690     1  0.0000000  0.6508444  3
   2675   2686   2689   2691     1  0.0000000  0.6508444  3
   2676   2675   2686   2687     1  0.0000000  1.2552000  3
   2676   2675   2686   2688     1  0.0000000  1.2552000  3
   2677   2676   2675   2686     1  0.0000000  1.2552000  3
   2677   2676   2679   2682     1  0.0000000  0.6508444  3
   2677   2676   2679   2680     1  0.0000000  0.6508444  3
   2677   2676   2679   2681     1  0.0000000  0.6508444  3
   2678   2676   2675   2686     1  0.0000000  1.2552000  3
   2678   2676   2679   2682     1  0.0000000  0.6508444  3
   2678   2676   2679   2680     1  0.0000000  0.6508444  3
   2678   2676   2679   2681     1  0.0000000  0.6508444  3
   2679   2682   2684   2685     1  180.0000771  9.6232000  2
   2680   2679   2682   2683     1  0.0000000  3.3472000  1
   2680   2679   2682   2683     1  0.0000000  0.0000000  2
   2680   2679   2682   2683     1  180.0000771  0.3347200  3
   2680   2679   2682   2684     1  180.0000771  0.0000000  2
   2681   2679   2682   2683     1  0.0000000  3.3472000  1
   2681   2679   2682   2683     1  0.0000000  0.0000000  2
   2681   2679   2682   2683     1  180.0000771  0.3347200  3
   2681   2679   2682   2684     1  180.0000771  0.0000000  2
   2683   2682   2684   2685     1  0.0000000  7.9496000  1
   2683   2682   2684   2685     1  180.0000771  9.6232000  2
   2687   2686   2689   2692     1  0.0000000  0.6508444  3
   2687   2686   2689   2690     1  0.0000000  0.6508444  3
   2687   2686   2689   2691     1  0.0000000  0.6508444  3
   2688   2686   2689   2692     1  0.0000000  0.6508444  3
   2688   2686   2689   2690     1  0.0000000  0.6508444  3
   2688   2686   2689   2691     1  0.0000000  0.6508444  3
   2689   2692   2694   2695     1  180.0000771  9.6232000  2
   2690   2689   2692   2693     1  0.0000000  3.3472000  1
   2690   2689   2692   2693     1  0.0000000  0.0000000  2
   2690   2689   2692   2693     1  180.0000771  0.3347200  3
   2690   2689   2692   2694     1  180.0000771  0.0000000  2
   2691   2689   2692   2693     1  0.0000000  3.3472000  1
   2691   2689   2692   2693     1  0.0000000  0.0000000  2
   2691   2689   2692   2693     1  180.0000771  0.3347200  3
   2691   2689   2692   2694     1  180.0000771  0.0000000  2
   2693   2692   2694   2695     1  0.0000000  7.9496000  1
   2693   2692   2694   2695     1  180.0000771  9.6232000  2
   2697   2700   2703   2704     1  0.0000000  0.6508444  3
   2697   2700   2703   2705     1  0.0000000  0.6508444  3
   2698   2697   2700   2703     1  0.0000000  0.6508444  3
   2698   2697   2700   2701     1  0.0000000  0.6508444  3
   2698   2697   2700   2702     1  0.0000000  0.6508444  3
   2699   2697   2700   2703     1  0.0000000  0.6508444  3
   2699   2697   2700   2701     1  0.0000000  0.6508444  3
   2699   2697   2700   2702     1  0.0000000  0.6508444  3
   2701   2700   2703   2706     1  0.0000000  0.6508444  3
   2701   2700   2703   2704     1  0.0000000  0.6508444  3
   2701   2700   2703   2705     1  0.0000000  0.6508444  3
   2701   2700   2697   2727     1  0.0000000  1.0460000  1
   2701   2700   2697   2727     1  0.0000000  0.0000000  3
   2702   2700   2703   2706     1  0.0000000  0.6508444  3
   2702   2700   2703   2704     1  0.0000000  0.6508444  3
   2702   2700   2703   2705     1  0.0000000  0.6508444  3
   2702   2700   2697   2727     1  0.0000000  1.0460000  1
   2702   2700   2697   2727     1  0.0000000  0.0000000  3
   2703   2706   2707   2708     1  0.0000000  1.2552000  3
   2703   2706   2707   2709     1  0.0000000  1.2552000  3
   2703   2706   2717   2718     1  0.0000000  1.2552000  3
   2703   2706   2717   2719     1  0.0000000  1.2552000  3
   2704   2703   2706   2707     1  0.0000000  1.2552000  3
   2704   2703   2706   2717     1  0.0000000  1.2552000  3
   2705   2703   2706   2707     1  0.0000000  1.2552000  3
   2705   2703   2706   2717     1  0.0000000  1.2552000  3
   2706   2707   2710   2711     1  0.0000000  0.6508444  3
   2706   2707   2710   2712     1  0.0000000  0.6508444  3
   2706   2717   2720   2721     1  0.0000000  0.6508444  3
   2706   2717   2720   2722     1  0.0000000  0.6508444  3
   2707   2706   2717   2718     1  0.0000000  1.2552000  3
   2707   2706   2717   2719     1  0.0000000  1.2552000  3
   2708   2707   2710   2713     1  0.0000000  0.6508444  3
   2708   2707   2710   2711     1  0.0000000  0.6508444  3
   2708   2707   2710   2712     1  0.0000000  0.6508444  3
   2708   2707   2706   2717     1  0.0000000  1.2552000  3
   2709   2707   2710   2713     1  0.0000000  0.6508444  3
   2709   2707   2710   2711     1  0.0000000  0.6508444  3
   2709   2707   2710   2712     1  0.0000000  0.6508444  3
   2709   2707   2706   2717     1  0.0000000  1.2552000  3
   2710   2713   2715   2716     1  180.0000771  9.6232000  2
   2711   2710   2713   2714     1  0.0000000  3.3472000  1
   2711   2710   2713   2714     1  0.0000000  0.0000000  2
   2711   2710   2713   2714     1  180.0000771  0.3347200  3
   2711   2710   2713   2715     1  180.0000771  0.0000000  2
   2712   2710   2713   2714     1  0.0000000  3.3472000  1
   2712   2710   2713   2714     1  0.0000000  0.0000000  2
   2712   2710   2713   2714     1  180.0000771  0.3347200  3
   2712   2710   2713   2715     1  180.0000771  0.0000000  2
   2714   2713   2715   2716     1  0.0000000  7.9496000  1
   2714   2713   2715   2716     1  180.0000771  9.6232000  2
   2718   2717   2720   2723     1  0.0000000  0.6508444  3
   2718   2717   2720   2721     1  0.0000000  0.6508444  3
   2718   2717   2720   2722     1  0.0000000  0.6508444  3
   2719   2717   2720   2723     1  0.0000000  0.6508444  3
   2719   2717   2720   2721     1  0.0000000  0.6508444  3
   2719   2717   2720   2722     1  0.0000000  0.6508444  3
   2720   2723   2725   2726     1  180.0000771  9.6232000  2
   2721   2720   2723   2724     1  0.0000000  3.3472000  1
   2721   2720   2723   2724     1  0.0000000  0.0000000  2
   2721   2720   2723   2724     1  180.0000771  0.3347200  3
   2721   2720   2723   2725     1  180.0000771  0.0000000  2
   2722   2720   2723   2724     1  0.0000000  3.3472000  1
   2722   2720   2723   2724     1  0.0000000  0.0000000  2
   2722   2720   2723   2724     1  180.0000771  0.3347200  3
   2722   2720   2723   2725     1  180.0000771  0.0000000  2
   2724   2723   2725   2726     1  0.0000000  7.9496000  1
   2724   2723   2725   2726     1  180.0000771  9.6232000  2
   2728   2731   2734   2735     1  0.0000000  0.6508444  3
   2728   2731   2734   2736     1  0.0000000  0.6508444  3
   2729   2728   2731   2734     1  0.0000000  0.6508444  3
   2729   2728   2731   2732     1  0.0000000  0.6508444  3
   2729   2728   2731   2733     1  0.0000000  0.6508444  3
   2730   2728   2731   2734     1  0.0000000  0.6508444  3
   2730   2728   2731   2732     1  0.0000000  0.6508444  3
   2730   2728   2731   2733     1  0.0000000  0.6508444  3
   2732   2731   2728   2758     1  0.0000000  1.0460000  1
   2732   2731   2728   2758     1  0.0000000  0.0000000  3
   2732   2731   2734   2737     1  0.0000000  0.6508444  3
   2732   2731   2734   2735     1  0.0000000  0.6508444  3
   2732   2731   2734   2736     1  0.0000000  0.6508444  3
   2733   2731   2728   2758     1  0.0000000  1.0460000  1
   2733   2731   2728   2758     1  0.0000000  0.0000000  3
   2733   2731   2734   2737     1  0.0000000  0.6508444  3
   2733   2731   2734   2735     1  0.0000000  0.6508444  3
   2733   2731   2734   2736     1  0.0000000  0.6508444  3
   2734   2737   2738   2739     1  0.0000000  1.2552000  3
   2734   2737   2738   2740     1  0.0000000  1.2552000  3
   2734   2737   2748   2749     1  0.0000000  1.2552000  3
   2734   2737   2748   2750     1  0.0000000  1.2552000  3
   2735   2734   2737   2738     1  0.0000000  1.2552000  3
   2735   2734   2737   2748     1  0.0000000  1.2552000  3
   2736   2734   2737   2738     1  0.0000000  1.2552000  3
   2736   2734   2737   2748     1  0.0000000  1.2552000  3
   2737   2738   2741   2742     1  0.0000000  0.6508444  3
   2737   2738   2741   2743     1  0.0000000  0.6508444  3
   2737   2748   2751   2752     1  0.0000000  0.6508444  3
   2737   2748   2751   2753     1  0.0000000  0.6508444  3
   2738   2737   2748   2749     1  0.0000000  1.2552000  3
   2738   2737   2748   2750     1  0.0000000  1.2552000  3
   2739   2738   2737   2748     1  0.0000000  1.2552000  3
   2739   2738   2741   2744     1  0.0000000  0.6508444  3
   2739   2738   2741   2742     1  0.0000000  0.6508444  3
   2739   2738   2741   2743     1  0.0000000  0.6508444  3
   2740   2738   2737   2748     1  0.0000000  1.2552000  3
   2740   2738   2741   2744     1  0.0000000  0.6508444  3
   2740   2738   2741   2742     1  0.0000000  0.6508444  3
   2740   2738   2741   2743     1  0.0000000  0.6508444  3
   2741   2744   2746   2747     1  180.0000771  9.6232000  2
   2742   2741   2744   2745     1  0.0000000  3.3472000  1
   2742   2741   2744   2745     1  0.0000000  0.0000000  2
   2742   2741   2744   2745     1  180.0000771  0.3347200  3
   2742   2741   2744   2746     1  180.0000771  0.0000000  2
   2743   2741   2744   2745     1  0.0000000  3.3472000  1
   2743   2741   2744   2745     1  0.0000000  0.0000000  2
   2743   2741   2744   2745     1  180.0000771  0.3347200  3
   2743   2741   2744   2746     1  180.0000771  0.0000000  2
   2745   2744   2746   2747     1  0.0000000  7.9496000  1
   2745   2744   2746   2747     1  180.0000771  9.6232000  2
   2749   2748   2751   2754     1  0.0000000  0.6508444  3
   2749   2748   2751   2752     1  0.0000000  0.6508444  3
   2749   2748   2751   2753     1  0.0000000  0.6508444  3
   2750   2748   2751   2754     1  0.0000000  0.6508444  3
   2750   2748   2751   2752     1  0.0000000  0.6508444  3
   2750   2748   2751   2753     1  0.0000000  0.6508444  3
   2751   2754   2756   2757     1  180.0000771  9.6232000  2
   2752   2751   2754   2755     1  0.0000000  3.3472000  1
   2752   2751   2754   2755     1  0.0000000  0.0000000  2
   2752   2751   2754   2755     1  180.0000771  0.3347200  3
   2752   2751   2754   2756     1  180.0000771  0.0000000  2
   2753   2751   2754   2755     1  0.0000000  3.3472000  1
   2753   2751   2754   2755     1  0.0000000  0.0000000  2
   2753   2751   2754   2755     1  180.0000771  0.3347200  3
   2753   2751   2754   2756     1  180.0000771  0.0000000  2
   2755   2754   2756   2757     1  0.0000000  7.9496000  1
   2755   2754   2756   2757     1  180.0000771  9.6232000  2
   2759   2762   2765   2766     1  0.0000000  0.6508444  3
   2759   2762   2765   2767     1  0.0000000  0.6508444  3
   2760   2759   2762   2765     1  0.0000000  0.6508444  3
   2760   2759   2762   2763     1  0.0000000  0.6508444  3
   2760   2759   2762   2764     1  0.0000000  0.6508444  3
   2761   2759   2762   2765     1  0.0000000  0.6508444  3
   2761   2759   2762   2763     1  0.0000000  0.6508444  3
   2761   2759   2762   2764     1  0.0000000  0.6508444  3
   2763   2762   2765   2768     1  0.0000000  0.6508444  3
   2763   2762   2765   2766     1  0.0000000  0.6508444  3
   2763   2762   2765   2767     1  0.0000000  0.6508444  3
   2763   2762   2759   2789     1  0.0000000  1.0460000  1
   2763   2762   2759   2789     1  0.0000000  0.0000000  3
   2764   2762   2765   2768     1  0.0000000  0.6508444  3
   2764   2762   2765   2766     1  0.0000000  0.6508444  3
   2764   2762   2765   2767     1  0.0000000  0.6508444  3
   2764   2762   2759   2789     1  0.0000000  1.0460000  1
   2764   2762   2759   2789     1  0.0000000  0.0000000  3
   2765   2768   2769   2770     1  0.0000000  1.2552000  3
   2765   2768   2769   2771     1  0.0000000  1.2552000  3
   2765   2768   2779   2780     1  0.0000000  1.2552000  3
   2765   2768   2779   2781     1  0.0000000  1.2552000  3
   2766   2765   2768   2769     1  0.0000000  1.2552000  3
   2766   2765   2768   2779     1  0.0000000  1.2552000  3
   2767   2765   2768   2769     1  0.0000000  1.2552000  3
   2767   2765   2768   2779     1  0.0000000  1.2552000  3
   2768   2769   2772   2773     1  0.0000000  0.6508444  3
   2768   2769   2772   2774     1  0.0000000  0.6508444  3
   2768   2779   2782   2783     1  0.0000000  0.6508444  3
   2768   2779   2782   2784     1  0.0000000  0.6508444  3
   2769   2768   2779   2780     1  0.0000000  1.2552000  3
   2769   2768   2779   2781     1  0.0000000  1.2552000  3
   2770   2769   2772   2775     1  0.0000000  0.6508444  3
   2770   2769   2772   2773     1  0.0000000  0.6508444  3
   2770   2769   2772   2774     1  0.0000000  0.6508444  3
   2770   2769   2768   2779     1  0.0000000  1.2552000  3
   2771   2769   2772   2775     1  0.0000000  0.6508444  3
   2771   2769   2772   2773     1  0.0000000  0.6508444  3
   2771   2769   2772   2774     1  0.0000000  0.6508444  3
   2771   2769   2768   2779     1  0.0000000  1.2552000  3
   2772   2775   2777   2778     1  180.0000771  9.6232000  2
   2773   2772   2775   2776     1  0.0000000  3.3472000  1
   2773   2772   2775   2776     1  0.0000000  0.0000000  2
   2773   2772   2775   2776     1  180.0000771  0.3347200  3
   2773   2772   2775   2777     1  180.0000771  0.0000000  2
   2774   2772   2775   2776     1  0.0000000  3.3472000  1
   2774   2772   2775   2776     1  0.0000000  0.0000000  2
   2774   2772   2775   2776     1  180.0000771  0.3347200  3
   2774   2772   2775   2777     1  180.0000771  0.0000000  2
   2776   2775   2777   2778     1  0.0000000  7.9496000  1
   2776   2775   2777   2778     1  180.0000771  9.6232000  2
   2780   2779   2782   2785     1  0.0000000  0.6508444  3
   2780   2779   2782   2783     1  0.0000000  0.6508444  3
   2780   2779   2782   2784     1  0.0000000  0.6508444  3
   2781   2779   2782   2785     1  0.0000000  0.6508444  3
   2781   2779   2782   2783     1  0.0000000  0.6508444  3
   2781   2779   2782   2784     1  0.0000000  0.6508444  3
   2782   2785   2787   2788     1  180.0000771  9.6232000  2
   2783   2782   2785   2786     1  0.0000000  3.3472000  1
   2783   2782   2785   2786     1  0.0000000  0.0000000  2
   2783   2782   2785   2786     1  180.0000771  0.3347200  3
   2783   2782   2785   2787     1  180.0000771  0.0000000  2
   2784   2782   2785   2786     1  0.0000000  3.3472000  1
   2784   2782   2785   2786     1  0.0000000  0.0000000  2
   2784   2782   2785   2786     1  180.0000771  0.3347200  3
   2784   2782   2785   2787     1  180.0000771  0.0000000  2
   2786   2785   2787   2788     1  0.0000000  7.9496000  1
   2786   2785   2787   2788     1  180.0000771  9.6232000  2
   2790   2793   2796   2797     1  0.0000000  0.6508444  3
   2790   2793   2796   2798     1  0.0000000  0.6508444  3
   2791   2790   2793   2796     1  0.0000000  0.6508444  3
   2791   2790   2793   2794     1  0.0000000  0.6508444  3
   2791   2790   2793   2795     1  0.0000000  0.6508444  3
   2792   2790   2793   2796     1  0.0000000  0.6508444  3
   2792   2790   2793   2794     1  0.0000000  0.6508444  3
   2792   2790   2793   2795     1  0.0000000  0.6508444  3
   2794   2793   2790   2820     1  0.0000000  1.0460000  1
   2794   2793   2790   2820     1  0.0000000  0.0000000  3
   2794   2793   2796   2799     1  0.0000000  0.6508444  3
   2794   2793   2796   2797     1  0.0000000  0.6508444  3
   2794   2793   2796   2798     1  0.0000000  0.6508444  3
   2795   2793   2790   2820     1  0.0000000  1.0460000  1
   2795   2793   2790   2820     1  0.0000000  0.0000000  3
   2795   2793   2796   2799     1  0.0000000  0.6508444  3
   2795   2793   2796   2797     1  0.0000000  0.6508444  3
   2795   2793   2796   2798     1  0.0000000  0.6508444  3
   2796   2799   2800   2801     1  0.0000000  1.2552000  3
   2796   2799   2800   2802     1  0.0000000  1.2552000  3
   2796   2799   2810   2811     1  0.0000000  1.2552000  3
   2796   2799   2810   2812     1  0.0000000  1.2552000  3
   2797   2796   2799   2800     1  0.0000000  1.2552000  3
   2797   2796   2799   2810     1  0.0000000  1.2552000  3
   2798   2796   2799   2800     1  0.0000000  1.2552000  3
   2798   2796   2799   2810     1  0.0000000  1.2552000  3
   2799   2800   2803   2804     1  0.0000000  0.6508444  3
   2799   2800   2803   2805     1  0.0000000  0.6508444  3
   2799   2810   2813   2814     1  0.0000000  0.6508444  3
   2799   2810   2813   2815     1  0.0000000  0.6508444  3
   2800   2799   2810   2811     1  0.0000000  1.2552000  3
   2800   2799   2810   2812     1  0.0000000  1.2552000  3
   2801   2800   2799   2810     1  0.0000000  1.2552000  3
   2801   2800   2803   2806     1  0.0000000  0.6508444  3
   2801   2800   2803   2804     1  0.0000000  0.6508444  3
   2801   2800   2803   2805     1  0.0000000  0.6508444  3
   2802   2800   2799   2810     1  0.0000000  1.2552000  3
   2802   2800   2803   2806     1  0.0000000  0.6508444  3
   2802   2800   2803   2804     1  0.0000000  0.6508444  3
   2802   2800   2803   2805     1  0.0000000  0.6508444  3
   2803   2806   2808   2809     1  180.0000771  9.6232000  2
   2804   2803   2806   2807     1  0.0000000  3.3472000  1
   2804   2803   2806   2807     1  0.0000000  0.0000000  2
   2804   2803   2806   2807     1  180.0000771  0.3347200  3
   2804   2803   2806   2808     1  180.0000771  0.0000000  2
   2805   2803   2806   2807     1  0.0000000  3.3472000  1
   2805   2803   2806   2807     1  0.0000000  0.0000000  2
   2805   2803   2806   2807     1  180.0000771  0.3347200  3
   2805   2803   2806   2808     1  180.0000771  0.0000000  2
   2807   2806   2808   2809     1  0.0000000  7.9496000  1
   2807   2806   2808   2809     1  180.0000771  9.6232000  2
   2811   2810   2813   2816     1  0.0000000  0.6508444  3
   2811   2810   2813   2814     1  0.0000000  0.6508444  3
   2811   2810   2813   2815     1  0.0000000  0.6508444  3
   2812   2810   2813   2816     1  0.0000000  0.6508444  3
   2812   2810   2813   2814     1  0.0000000  0.6508444  3
   2812   2810   2813   2815     1  0.0000000  0.6508444  3
   2813   2816   2818   2819     1  180.0000771  9.6232000  2
   2814   2813   2816   2817     1  0.0000000  3.3472000  1
   2814   2813   2816   2817     1  0.0000000  0.0000000  2
   2814   2813   2816   2817     1  180.0000771  0.3347200  3
   2814   2813   2816   2818     1  180.0000771  0.0000000  2
   2815   2813   2816   2817     1  0.0000000  3.3472000  1
   2815   2813   2816   2817     1  0.0000000  0.0000000  2
   2815   2813   2816   2817     1  180.0000771  0.3347200  3
   2815   2813   2816   2818     1  180.0000771  0.0000000  2
   2817   2816   2818   2819     1  0.0000000  7.9496000  1
   2817   2816   2818   2819     1  180.0000771  9.6232000  2
   2821   2824   2827   2828     1  0.0000000  0.6508444  3
   2821   2824   2827   2829     1  0.0000000  0.6508444  3
   2822   2821   2824   2827     1  0.0000000  0.6508444  3
   2822   2821   2824   2825     1  0.0000000  0.6508444  3
   2822   2821   2824   2826     1  0.0000000  0.6508444  3
   2823   2821   2824   2827     1  0.0000000  0.6508444  3
   2823   2821   2824   2825     1  0.0000000  0.6508444  3
   2823   2821   2824   2826     1  0.0000000  0.6508444  3
   2825   2824   2827   2830     1  0.0000000  0.6508444  3
   2825   2824   2827   2828     1  0.0000000  0.6508444  3
   2825   2824   2827   2829     1  0.0000000  0.6508444  3
   2825   2824   2821   2851     1  0.0000000  1.0460000  1
   2825   2824   2821   2851     1  0.0000000  0.0000000  3
   2826   2824   2827   2830     1  0.0000000  0.6508444  3
   2826   2824   2827   2828     1  0.0000000  0.6508444  3
   2826   2824   2827   2829     1  0.0000000  0.6508444  3
   2826   2824   2821   2851     1  0.0000000  1.0460000  1
   2826   2824   2821   2851     1  0.0000000  0.0000000  3
   2827   2830   2831   2832     1  0.0000000  1.2552000  3
   2827   2830   2831   2833     1  0.0000000  1.2552000  3
   2827   2830   2841   2842     1  0.0000000  1.2552000  3
   2827   2830   2841   2843     1  0.0000000  1.2552000  3
   2828   2827   2830   2831     1  0.0000000  1.2552000  3
   2828   2827   2830   2841     1  0.0000000  1.2552000  3
   2829   2827   2830   2831     1  0.0000000  1.2552000  3
   2829   2827   2830   2841     1  0.0000000  1.2552000  3
   2830   2831   2834   2835     1  0.0000000  0.6508444  3
   2830   2831   2834   2836     1  0.0000000  0.6508444  3
   2830   2841   2844   2845     1  0.0000000  0.6508444  3
   2830   2841   2844   2846     1  0.0000000  0.6508444  3
   2831   2830   2841   2842     1  0.0000000  1.2552000  3
   2831   2830   2841   2843     1  0.0000000  1.2552000  3
   2832   2831   2834   2837     1  0.0000000  0.6508444  3
   2832   2831   2834   2835     1  0.0000000  0.6508444  3
   2832   2831   2834   2836     1  0.0000000  0.6508444  3
   2832   2831   2830   2841     1  0.0000000  1.2552000  3
   2833   2831   2834   2837     1  0.0000000  0.6508444  3
   2833   2831   2834   2835     1  0.0000000  0.6508444  3
   2833   2831   2834   2836     1  0.0000000  0.6508444  3
   2833   2831   2830   2841     1  0.0000000  1.2552000  3
   2834   2837   2839   2840     1  180.0000771  9.6232000  2
   2835   2834   2837   2838     1  0.0000000  3.3472000  1
   2835   2834   2837   2838     1  0.0000000  0.0000000  2
   2835   2834   2837   2838     1  180.0000771  0.3347200  3
   2835   2834   2837   2839     1  180.0000771  0.0000000  2
   2836   2834   2837   2838     1  0.0000000  3.3472000  1
   2836   2834   2837   2838     1  0.0000000  0.0000000  2
   2836   2834   2837   2838     1  180.0000771  0.3347200  3
   2836   2834   2837   2839     1  180.0000771  0.0000000  2
   2838   2837   2839   2840     1  0.0000000  7.9496000  1
   2838   2837   2839   2840     1  180.0000771  9.6232000  2
   2842   2841   2844   2847     1  0.0000000  0.6508444  3
   2842   2841   2844   2845     1  0.0000000  0.6508444  3
   2842   2841   2844   2846     1  0.0000000  0.6508444  3
   2843   2841   2844   2847     1  0.0000000  0.6508444  3
   2843   2841   2844   2845     1  0.0000000  0.6508444  3
   2843   2841   2844   2846     1  0.0000000  0.6508444  3
   2844   2847   2849   2850     1  180.0000771  9.6232000  2
   2845   2844   2847   2848     1  0.0000000  3.3472000  1
   2845   2844   2847   2848     1  0.0000000  0.0000000  2
   2845   2844   2847   2848     1  180.0000771  0.3347200  3
   2845   2844   2847   2849     1  180.0000771  0.0000000  2
   2846   2844   2847   2848     1  0.0000000  3.3472000  1
   2846   2844   2847   2848     1  0.0000000  0.0000000  2
   2846   2844   2847   2848     1  180.0000771  0.3347200  3
   2846   2844   2847   2849     1  180.0000771  0.0000000  2
   2848   2847   2849   2850     1  0.0000000  7.9496000  1
   2848   2847   2849   2850     1  180.0000771  9.6232000  2
   2852   2855   2858   2859     1  0.0000000  0.6508444  3
   2852   2855   2858   2860     1  0.0000000  0.6508444  3
   2853   2852   2855   2858     1  0.0000000  0.6508444  3
   2853   2852   2855   2856     1  0.0000000  0.6508444  3
   2853   2852   2855   2857     1  0.0000000  0.6508444  3
   2854   2852   2855   2858     1  0.0000000  0.6508444  3
   2854   2852   2855   2856     1  0.0000000  0.6508444  3
   2854   2852   2855   2857     1  0.0000000  0.6508444  3
   2856   2855   2852   2882     1  0.0000000  1.0460000  1
   2856   2855   2852   2882     1  0.0000000  0.0000000  3
   2856   2855   2858   2861     1  0.0000000  0.6508444  3
   2856   2855   2858   2859     1  0.0000000  0.6508444  3
   2856   2855   2858   2860     1  0.0000000  0.6508444  3
   2857   2855   2852   2882     1  0.0000000  1.0460000  1
   2857   2855   2852   2882     1  0.0000000  0.0000000  3
   2857   2855   2858   2861     1  0.0000000  0.6508444  3
   2857   2855   2858   2859     1  0.0000000  0.6508444  3
   2857   2855   2858   2860     1  0.0000000  0.6508444  3
   2858   2861   2862   2863     1  0.0000000  1.2552000  3
   2858   2861   2862   2864     1  0.0000000  1.2552000  3
   2858   2861   2872   2873     1  0.0000000  1.2552000  3
   2858   2861   2872   2874     1  0.0000000  1.2552000  3
   2859   2858   2861   2862     1  0.0000000  1.2552000  3
   2859   2858   2861   2872     1  0.0000000  1.2552000  3
   2860   2858   2861   2862     1  0.0000000  1.2552000  3
   2860   2858   2861   2872     1  0.0000000  1.2552000  3
   2861   2862   2865   2866     1  0.0000000  0.6508444  3
   2861   2862   2865   2867     1  0.0000000  0.6508444  3
   2861   2872   2875   2876     1  0.0000000  0.6508444  3
   2861   2872   2875   2877     1  0.0000000  0.6508444  3
   2862   2861   2872   2873     1  0.0000000  1.2552000  3
   2862   2861   2872   2874     1  0.0000000  1.2552000  3
   2863   2862   2861   2872     1  0.0000000  1.2552000  3
   2863   2862   2865   2868     1  0.0000000  0.6508444  3
   2863   2862   2865   2866     1  0.0000000  0.6508444  3
   2863   2862   2865   2867     1  0.0000000  0.6508444  3
   2864   2862   2861   2872     1  0.0000000  1.2552000  3
   2864   2862   2865   2868     1  0.0000000  0.6508444  3
   2864   2862   2865   2866     1  0.0000000  0.6508444  3
   2864   2862   2865   2867     1  0.0000000  0.6508444  3
   2865   2868   2870   2871     1  180.0000771  9.6232000  2
   2866   2865   2868   2869     1  0.0000000  3.3472000  1
   2866   2865   2868   2869     1  0.0000000  0.0000000  2
   2866   2865   2868   2869     1  180.0000771  0.3347200  3
   2866   2865   2868   2870     1  180.0000771  0.0000000  2
   2867   2865   2868   2869     1  0.0000000  3.3472000  1
   2867   2865   2868   2869     1  0.0000000  0.0000000  2
   2867   2865   2868   2869     1  180.0000771  0.3347200  3
   2867   2865   2868   2870     1  180.0000771  0.0000000  2
   2869   2868   2870   2871     1  0.0000000  7.9496000  1
   2869   2868   2870   2871     1  180.0000771  9.6232000  2
   2873   2872   2875   2878     1  0.0000000  0.6508444  3
   2873   2872   2875   2876     1  0.0000000  0.6508444  3
   2873   2872   2875   2877     1  0.0000000  0.6508444  3
   2874   2872   2875   2878     1  0.0000000  0.6508444  3
   2874   2872   2875   2876     1  0.0000000  0.6508444  3
   2874   2872   2875   2877     1  0.0000000  0.6508444  3
   2875   2878   2880   2881     1  180.0000771  9.6232000  2
   2876   2875   2878   2879     1  0.0000000  3.3472000  1
   2876   2875   2878   2879     1  0.0000000  0.0000000  2
   2876   2875   2878   2879     1  180.0000771  0.3347200  3
   2876   2875   2878   2880     1  180.0000771  0.0000000  2
   2877   2875   2878   2879     1  0.0000000  3.3472000  1
   2877   2875   2878   2879     1  0.0000000  0.0000000  2
   2877   2875   2878   2879     1  180.0000771  0.3347200  3
   2877   2875   2878   2880     1  180.0000771  0.0000000  2
   2879   2878   2880   2881     1  0.0000000  7.9496000  1
   2879   2878   2880   2881     1  180.0000771  9.6232000  2
   2883   2886   2889   2890     1  0.0000000  0.6508444  3
   2883   2886   2889   2891     1  0.0000000  0.6508444  3
   2884   2883   2886   2889     1  0.0000000  0.6508444  3
   2884   2883   2886   2887     1  0.0000000  0.6508444  3
   2884   2883   2886   2888     1  0.0000000  0.6508444  3
   2885   2883   2886   2889     1  0.0000000  0.6508444  3
   2885   2883   2886   2887     1  0.0000000  0.6508444  3
   2885   2883   2886   2888     1  0.0000000  0.6508444  3
   2887   2886   2889   2892     1  0.0000000  0.6508444  3
   2887   2886   2889   2890     1  0.0000000  0.6508444  3
   2887   2886   2889   2891     1  0.0000000  0.6508444  3
   2887   2886   2883   2913     1  0.0000000  1.0460000  1
   2887   2886   2883   2913     1  0.0000000  0.0000000  3
   2888   2886   2889   2892     1  0.0000000  0.6508444  3
   2888   2886   2889   2890     1  0.0000000  0.6508444  3
   2888   2886   2889   2891     1  0.0000000  0.6508444  3
   2888   2886   2883   2913     1  0.0000000  1.0460000  1
   2888   2886   2883   2913     1  0.0000000  0.0000000  3
   2889   2892   2893   2894     1  0.0000000  1.2552000  3
   2889   2892   2893   2895     1  0.0000000  1.2552000  3
   2889   2892   2903   2904     1  0.0000000  1.2552000  3
   2889   2892   2903   2905     1  0.0000000  1.2552000  3
   2890   2889   2892   2893     1  0.0000000  1.2552000  3
   2890   2889   2892   2903     1  0.0000000  1.2552000  3
   2891   2889   2892   2893     1  0.0000000  1.2552000  3
   2891   2889   2892   2903     1  0.0000000  1.2552000  3
   2892   2893   2896   2897     1  0.0000000  0.6508444  3
   2892   2893   2896   2898     1  0.0000000  0.6508444  3
   2892   2903   2906   2907     1  0.0000000  0.6508444  3
   2892   2903   2906   2908     1  0.0000000  0.6508444  3
   2893   2892   2903   2904     1  0.0000000  1.2552000  3
   2893   2892   2903   2905     1  0.0000000  1.2552000  3
   2894   2893   2896   2899     1  0.0000000  0.6508444  3
   2894   2893   2896   2897     1  0.0000000  0.6508444  3
   2894   2893   2896   2898     1  0.0000000  0.6508444  3
   2894   2893   2892   2903     1  0.0000000  1.2552000  3
   2895   2893   2896   2899     1  0.0000000  0.6508444  3
   2895   2893   2896   2897     1  0.0000000  0.6508444  3
   2895   2893   2896   2898     1  0.0000000  0.6508444  3
   2895   2893   2892   2903     1  0.0000000  1.2552000  3
   2896   2899   2901   2902     1  180.0000771  9.6232000  2
   2897   2896   2899   2900     1  0.0000000  3.3472000  1
   2897   2896   2899   2900     1  0.0000000  0.0000000  2
   2897   2896   2899   2900     1  180.0000771  0.3347200  3
   2897   2896   2899   2901     1  180.0000771  0.0000000  2
   2898   2896   2899   2900     1  0.0000000  3.3472000  1
   2898   2896   2899   2900     1  0.0000000  0.0000000  2
   2898   2896   2899   2900     1  180.0000771  0.3347200  3
   2898   2896   2899   2901     1  180.0000771  0.0000000  2
   2900   2899   2901   2902     1  0.0000000  7.9496000  1
   2900   2899   2901   2902     1  180.0000771  9.6232000  2
   2904   2903   2906   2909     1  0.0000000  0.6508444  3
   2904   2903   2906   2907     1  0.0000000  0.6508444  3
   2904   2903   2906   2908     1  0.0000000  0.6508444  3
   2905   2903   2906   2909     1  0.0000000  0.6508444  3
   2905   2903   2906   2907     1  0.0000000  0.6508444  3
   2905   2903   2906   2908     1  0.0000000  0.6508444  3
   2906   2909   2911   2912     1  180.0000771  9.6232000  2
   2907   2906   2909   2910     1  0.0000000  3.3472000  1
   2907   2906   2909   2910     1  0.0000000  0.0000000  2
   2907   2906   2909   2910     1  180.0000771  0.3347200  3
   2907   2906   2909   2911     1  180.0000771  0.0000000  2
   2908   2906   2909   2910     1  0.0000000  3.3472000  1
   2908   2906   2909   2910     1  0.0000000  0.0000000  2
   2908   2906   2909   2910     1  180.0000771  0.3347200  3
   2908   2906   2909   2911     1  180.0000771  0.0000000  2
   2910   2909   2911   2912     1  0.0000000  7.9496000  1
   2910   2909   2911   2912     1  180.0000771  9.6232000  2
   2914   2917   2920   2921     1  0.0000000  0.6508444  3
   2914   2917   2920   2922     1  0.0000000  0.6508444  3
   2915   2914   2917   2920     1  0.0000000  0.6508444  3
   2915   2914   2917   2918     1  0.0000000  0.6508444  3
   2915   2914   2917   2919     1  0.0000000  0.6508444  3
   2916   2914   2917   2920     1  0.0000000  0.6508444  3
   2916   2914   2917   2918     1  0.0000000  0.6508444  3
   2916   2914   2917   2919     1  0.0000000  0.6508444  3
   2918   2917   2914   2944     1  0.0000000  1.0460000  1
   2918   2917   2914   2944     1  0.0000000  0.0000000  3
   2918   2917   2920   2923     1  0.0000000  0.6508444  3
   2918   2917   2920   2921     1  0.0000000  0.6508444  3
   2918   2917   2920   2922     1  0.0000000  0.6508444  3
   2919   2917   2914   2944     1  0.0000000  1.0460000  1
   2919   2917   2914   2944     1  0.0000000  0.0000000  3
   2919   2917   2920   2923     1  0.0000000  0.6508444  3
   2919   2917   2920   2921     1  0.0000000  0.6508444  3
   2919   2917   2920   2922     1  0.0000000  0.6508444  3
   2920   2923   2924   2925     1  0.0000000  1.2552000  3
   2920   2923   2924   2926     1  0.0000000  1.2552000  3
   2920   2923   2934   2935     1  0.0000000  1.2552000  3
   2920   2923   2934   2936     1  0.0000000  1.2552000  3
   2921   2920   2923   2924     1  0.0000000  1.2552000  3
   2921   2920   2923   2934     1  0.0000000  1.2552000  3
   2922   2920   2923   2924     1  0.0000000  1.2552000  3
   2922   2920   2923   2934     1  0.0000000  1.2552000  3
   2923   2924   2927   2928     1  0.0000000  0.6508444  3
   2923   2924   2927   2929     1  0.0000000  0.6508444  3
   2923   2934   2937   2938     1  0.0000000  0.6508444  3
   2923   2934   2937   2939     1  0.0000000  0.6508444  3
   2924   2923   2934   2935     1  0.0000000  1.2552000  3
   2924   2923   2934   2936     1  0.0000000  1.2552000  3
   2925   2924   2923   2934     1  0.0000000  1.2552000  3
   2925   2924   2927   2930     1  0.0000000  0.6508444  3
   2925   2924   2927   2928     1  0.0000000  0.6508444  3
   2925   2924   2927   2929     1  0.0000000  0.6508444  3
   2926   2924   2923   2934     1  0.0000000  1.2552000  3
   2926   2924   2927   2930     1  0.0000000  0.6508444  3
   2926   2924   2927   2928     1  0.0000000  0.6508444  3
   2926   2924   2927   2929     1  0.0000000  0.6508444  3
   2927   2930   2932   2933     1  180.0000771  9.6232000  2
   2928   2927   2930   2931     1  0.0000000  3.3472000  1
   2928   2927   2930   2931     1  0.0000000  0.0000000  2
   2928   2927   2930   2931     1  180.0000771  0.3347200  3
   2928   2927   2930   2932     1  180.0000771  0.0000000  2
   2929   2927   2930   2931     1  0.0000000  3.3472000  1
   2929   2927   2930   2931     1  0.0000000  0.0000000  2
   2929   2927   2930   2931     1  180.0000771  0.3347200  3
   2929   2927   2930   2932     1  180.0000771  0.0000000  2
   2931   2930   2932   2933     1  0.0000000  7.9496000  1
   2931   2930   2932   2933     1  180.0000771  9.6232000  2
   2935   2934   2937   2940     1  0.0000000  0.6508444  3
   2935   2934   2937   2938     1  0.0000000  0.6508444  3
   2935   2934   2937   2939     1  0.0000000  0.6508444  3
   2936   2934   2937   2940     1  0.0000000  0.6508444  3
   2936   2934   2937   2938     1  0.0000000  0.6508444  3
   2936   2934   2937   2939     1  0.0000000  0.6508444  3
   2937   2940   2942   2943     1  180.0000771  9.6232000  2
   2938   2937   2940   2941     1  0.0000000  3.3472000  1
   2938   2937   2940   2941     1  0.0000000  0.0000000  2
   2938   2937   2940   2941     1  180.0000771  0.3347200  3
   2938   2937   2940   2942     1  180.0000771  0.0000000  2
   2939   2937   2940   2941     1  0.0000000  3.3472000  1
   2939   2937   2940   2941     1  0.0000000  0.0000000  2
   2939   2937   2940   2941     1  180.0000771  0.3347200  3
   2939   2937   2940   2942     1  180.0000771  0.0000000  2
   2941   2940   2942   2943     1  0.0000000  7.9496000  1
   2941   2940   2942   2943     1  180.0000771  9.6232000  2
   2945   2948   2951   2952     1  0.0000000  0.6508444  3
   2945   2948   2951   2953     1  0.0000000  0.6508444  3
   2946   2945   2948   2951     1  0.0000000  0.6508444  3
   2946   2945   2948   2949     1  0.0000000  0.6508444  3
   2946   2945   2948   2950     1  0.0000000  0.6508444  3
   2947   2945   2948   2951     1  0.0000000  0.6508444  3
   2947   2945   2948   2949     1  0.0000000  0.6508444  3
   2947   2945   2948   2950     1  0.0000000  0.6508444  3
   2949   2948   2951   2954     1  0.0000000  0.6508444  3
   2949   2948   2951   2952     1  0.0000000  0.6508444  3
   2949   2948   2951   2953     1  0.0000000  0.6508444  3
   2949   2948   2945   2975     1  0.0000000  1.0460000  1
   2949   2948   2945   2975     1  0.0000000  0.0000000  3
   2950   2948   2951   2954     1  0.0000000  0.6508444  3
   2950   2948   2951   2952     1  0.0000000  0.6508444  3
   2950   2948   2951   2953     1  0.0000000  0.6508444  3
   2950   2948   2945   2975     1  0.0000000  1.0460000  1
   2950   2948   2945   2975     1  0.0000000  0.0000000  3
   2951   2954   2955   2956     1  0.0000000  1.2552000  3
   2951   2954   2955   2957     1  0.0000000  1.2552000  3
   2951   2954   2965   2966     1  0.0000000  1.2552000  3
   2951   2954   2965   2967     1  0.0000000  1.2552000  3
   2952   2951   2954   2955     1  0.0000000  1.2552000  3
   2952   2951   2954   2965     1  0.0000000  1.2552000  3
   2953   2951   2954   2955     1  0.0000000  1.2552000  3
   2953   2951   2954   2965     1  0.0000000  1.2552000  3
   2954   2955   2958   2959     1  0.0000000  0.6508444  3
   2954   2955   2958   2960     1  0.0000000  0.6508444  3
   2954   2965   2968   2969     1  0.0000000  0.6508444  3
   2954   2965   2968   2970     1  0.0000000  0.6508444  3
   2955   2954   2965   2966     1  0.0000000  1.2552000  3
   2955   2954   2965   2967     1  0.0000000  1.2552000  3
   2956   2955   2958   2961     1  0.0000000  0.6508444  3
   2956   2955   2958   2959     1  0.0000000  0.6508444  3
   2956   2955   2958   2960     1  0.0000000  0.6508444  3
   2956   2955   2954   2965     1  0.0000000  1.2552000  3
   2957   2955   2958   2961     1  0.0000000  0.6508444  3
   2957   2955   2958   2959     1  0.0000000  0.6508444  3
   2957   2955   2958   2960     1  0.0000000  0.6508444  3
   2957   2955   2954   2965     1  0.0000000  1.2552000  3
   2958   2961   2963   2964     1  180.0000771  9.6232000  2
   2959   2958   2961   2962     1  0.0000000  3.3472000  1
   2959   2958   2961   2962     1  0.0000000  0.0000000  2
   2959   2958   2961   2962     1  180.0000771  0.3347200  3
   2959   2958   2961   2963     1  180.0000771  0.0000000  2
   2960   2958   2961   2962     1  0.0000000  3.3472000  1
   2960   2958   2961   2962     1  0.0000000  0.0000000  2
   2960   2958   2961   2962     1  180.0000771  0.3347200  3
   2960   2958   2961   2963     1  180.0000771  0.0000000  2
   2962   2961   2963   2964     1  0.0000000  7.9496000  1
   2962   2961   2963   2964     1  180.0000771  9.6232000  2
   2966   2965   2968   2971     1  0.0000000  0.6508444  3
   2966   2965   2968   2969     1  0.0000000  0.6508444  3
   2966   2965   2968   2970     1  0.0000000  0.6508444  3
   2967   2965   2968   2971     1  0.0000000  0.6508444  3
   2967   2965   2968   2969     1  0.0000000  0.6508444  3
   2967   2965   2968   2970     1  0.0000000  0.6508444  3
   2968   2971   2973   2974     1  180.0000771  9.6232000  2
   2969   2968   2971   2972     1  0.0000000  3.3472000  1
   2969   2968   2971   2972     1  0.0000000  0.0000000  2
   2969   2968   2971   2972     1  180.0000771  0.3347200  3
   2969   2968   2971   2973     1  180.0000771  0.0000000  2
   2970   2968   2971   2972     1  0.0000000  3.3472000  1
   2970   2968   2971   2972     1  0.0000000  0.0000000  2
   2970   2968   2971   2972     1  180.0000771  0.3347200  3
   2970   2968   2971   2973     1  180.0000771  0.0000000  2
   2972   2971   2973   2974     1  0.0000000  7.9496000  1
   2972   2971   2973   2974     1  180.0000771  9.6232000  2
   2976   2979   2982   2983     1  0.0000000  0.6508444  3
   2976   2979   2982   2984     1  0.0000000  0.6508444  3
   2977   2976   2979   2982     1  0.0000000  0.6508444  3
   2977   2976   2979   2980     1  0.0000000  0.6508444  3
   2977   2976   2979   2981     1  0.0000000  0.6508444  3
   2978   2976   2979   2982     1  0.0000000  0.6508444  3
   2978   2976   2979   2980     1  0.0000000  0.6508444  3
   2978   2976   2979   2981     1  0.0000000  0.6508444  3
   2980   2979   2976   3006     1  0.0000000  1.0460000  1
   2980   2979   2976   3006     1  0.0000000  0.0000000  3
   2980   2979   2982   2985     1  0.0000000  0.6508444  3
   2980   2979   2982   2983     1  0.0000000  0.6508444  3
   2980   2979   2982   2984     1  0.0000000  0.6508444  3
   2981   2979   2976   3006     1  0.0000000  1.0460000  1
   2981   2979   2976   3006     1  0.0000000  0.0000000  3
   2981   2979   2982   2985     1  0.0000000  0.6508444  3
   2981   2979   2982   2983     1  0.0000000  0.6508444  3
   2981   2979   2982   2984     1  0.0000000  0.6508444  3
   2982   2985   2986   2987     1  0.0000000  1.2552000  3
   2982   2985   2986   2988     1  0.0000000  1.2552000  3
   2982   2985   2996   2997     1  0.0000000  1.2552000  3
   2982   2985   2996   2998     1  0.0000000  1.2552000  3
   2983   2982   2985   2986     1  0.0000000  1.2552000  3
   2983   2982   2985   2996     1  0.0000000  1.2552000  3
   2984   2982   2985   2986     1  0.0000000  1.2552000  3
   2984   2982   2985   2996     1  0.0000000  1.2552000  3
   2985   2986   2989   2990     1  0.0000000  0.6508444  3
   2985   2986   2989   2991     1  0.0000000  0.6508444  3
   2985   2996   2999   3000     1  0.0000000  0.6508444  3
   2985   2996   2999   3001     1  0.0000000  0.6508444  3
   2986   2985   2996   2997     1  0.0000000  1.2552000  3
   2986   2985   2996   2998     1  0.0000000  1.2552000  3
   2987   2986   2985   2996     1  0.0000000  1.2552000  3
   2987   2986   2989   2992     1  0.0000000  0.6508444  3
   2987   2986   2989   2990     1  0.0000000  0.6508444  3
   2987   2986   2989   2991     1  0.0000000  0.6508444  3
   2988   2986   2985   2996     1  0.0000000  1.2552000  3
   2988   2986   2989   2992     1  0.0000000  0.6508444  3
   2988   2986   2989   2990     1  0.0000000  0.6508444  3
   2988   2986   2989   2991     1  0.0000000  0.6508444  3
   2989   2992   2994   2995     1  180.0000771  9.6232000  2
   2990   2989   2992   2993     1  0.0000000  3.3472000  1
   2990   2989   2992   2993     1  0.0000000  0.0000000  2
   2990   2989   2992   2993     1  180.0000771  0.3347200  3
   2990   2989   2992   2994     1  180.0000771  0.0000000  2
   2991   2989   2992   2993     1  0.0000000  3.3472000  1
   2991   2989   2992   2993     1  0.0000000  0.0000000  2
   2991   2989   2992   2993     1  180.0000771  0.3347200  3
   2991   2989   2992   2994     1  180.0000771  0.0000000  2
   2993   2992   2994   2995     1  0.0000000  7.9496000  1
   2993   2992   2994   2995     1  180.0000771  9.6232000  2
   2997   2996   2999   3002     1  0.0000000  0.6508444  3
   2997   2996   2999   3000     1  0.0000000  0.6508444  3
   2997   2996   2999   3001     1  0.0000000  0.6508444  3
   2998   2996   2999   3002     1  0.0000000  0.6508444  3
   2998   2996   2999   3000     1  0.0000000  0.6508444  3
   2998   2996   2999   3001     1  0.0000000  0.6508444  3
   2999   3002   3004   3005     1  180.0000771  9.6232000  2
   3000   2999   3002   3003     1  0.0000000  3.3472000  1
   3000   2999   3002   3003     1  0.0000000  0.0000000  2
   3000   2999   3002   3003     1  180.0000771  0.3347200  3
   3000   2999   3002   3004     1  180.0000771  0.0000000  2
   3001   2999   3002   3003     1  0.0000000  3.3472000  1
   3001   2999   3002   3003     1  0.0000000  0.0000000  2
   3001   2999   3002   3003     1  180.0000771  0.3347200  3
   3001   2999   3002   3004     1  180.0000771  0.0000000  2
   3003   3002   3004   3005     1  0.0000000  7.9496000  1
   3003   3002   3004   3005     1  180.0000771  9.6232000  2
   3007   3010   3013   3014     1  0.0000000  0.6508444  3
   3007   3010   3013   3015     1  0.0000000  0.6508444  3
   3008   3007   3010   3013     1  0.0000000  0.6508444  3
   3008   3007   3010   3011     1  0.0000000  0.6508444  3
   3008   3007   3010   3012     1  0.0000000  0.6508444  3
   3009   3007   3010   3013     1  0.0000000  0.6508444  3
   3009   3007   3010   3011     1  0.0000000  0.6508444  3
   3009   3007   3010   3012     1  0.0000000  0.6508444  3
   3011   3010   3013   3016     1  0.0000000  0.6508444  3
   3011   3010   3013   3014     1  0.0000000  0.6508444  3
   3011   3010   3013   3015     1  0.0000000  0.6508444  3
   3011   3010   3007   3037     1  0.0000000  1.0460000  1
   3011   3010   3007   3037     1  0.0000000  0.0000000  3
   3012   3010   3013   3016     1  0.0000000  0.6508444  3
   3012   3010   3013   3014     1  0.0000000  0.6508444  3
   3012   3010   3013   3015     1  0.0000000  0.6508444  3
   3012   3010   3007   3037     1  0.0000000  1.0460000  1
   3012   3010   3007   3037     1  0.0000000  0.0000000  3
   3013   3016   3017   3018     1  0.0000000  1.2552000  3
   3013   3016   3017   3019     1  0.0000000  1.2552000  3
   3013   3016   3027   3028     1  0.0000000  1.2552000  3
   3013   3016   3027   3029     1  0.0000000  1.2552000  3
   3014   3013   3016   3017     1  0.0000000  1.2552000  3
   3014   3013   3016   3027     1  0.0000000  1.2552000  3
   3015   3013   3016   3017     1  0.0000000  1.2552000  3
   3015   3013   3016   3027     1  0.0000000  1.2552000  3
   3016   3017   3020   3021     1  0.0000000  0.6508444  3
   3016   3017   3020   3022     1  0.0000000  0.6508444  3
   3016   3027   3030   3031     1  0.0000000  0.6508444  3
   3016   3027   3030   3032     1  0.0000000  0.6508444  3
   3017   3016   3027   3028     1  0.0000000  1.2552000  3
   3017   3016   3027   3029     1  0.0000000  1.2552000  3
   3018   3017   3020   3023     1  0.0000000  0.6508444  3
   3018   3017   3020   3021     1  0.0000000  0.6508444  3
   3018   3017   3020   3022     1  0.0000000  0.6508444  3
   3018   3017   3016   3027     1  0.0000000  1.2552000  3
   3019   3017   3020   3023     1  0.0000000  0.6508444  3
   3019   3017   3020   3021     1  0.0000000  0.6508444  3
   3019   3017   3020   3022     1  0.0000000  0.6508444  3
   3019   3017   3016   3027     1  0.0000000  1.2552000  3
   3020   3023   3025   3026     1  180.0000771  9.6232000  2
   3021   3020   3023   3024     1  0.0000000  3.3472000  1
   3021   3020   3023   3024     1  0.0000000  0.0000000  2
   3021   3020   3023   3024     1  180.0000771  0.3347200  3
   3021   3020   3023   3025     1  180.0000771  0.0000000  2
   3022   3020   3023   3024     1  0.0000000  3.3472000  1
   3022   3020   3023   3024     1  0.0000000  0.0000000  2
   3022   3020   3023   3024     1  180.0000771  0.3347200  3
   3022   3020   3023   3025     1  180.0000771  0.0000000  2
   3024   3023   3025   3026     1  0.0000000  7.9496000  1
   3024   3023   3025   3026     1  180.0000771  9.6232000  2
   3028   3027   3030   3033     1  0.0000000  0.6508444  3
   3028   3027   3030   3031     1  0.0000000  0.6508444  3
   3028   3027   3030   3032     1  0.0000000  0.6508444  3
   3029   3027   3030   3033     1  0.0000000  0.6508444  3
   3029   3027   3030   3031     1  0.0000000  0.6508444  3
   3029   3027   3030   3032     1  0.0000000  0.6508444  3
   3030   3033   3035   3036     1  180.0000771  9.6232000  2
   3031   3030   3033   3034     1  0.0000000  3.3472000  1
   3031   3030   3033   3034     1  0.0000000  0.0000000  2
   3031   3030   3033   3034     1  180.0000771  0.3347200  3
   3031   3030   3033   3035     1  180.0000771  0.0000000  2
   3032   3030   3033   3034     1  0.0000000  3.3472000  1
   3032   3030   3033   3034     1  0.0000000  0.0000000  2
   3032   3030   3033   3034     1  180.0000771  0.3347200  3
   3032   3030   3033   3035     1  180.0000771  0.0000000  2
   3034   3033   3035   3036     1  0.0000000  7.9496000  1
   3034   3033   3035   3036     1  180.0000771  9.6232000  2
   3038   3041   3044   3045     1  0.0000000  0.6508444  3
   3038   3041   3044   3046     1  0.0000000  0.6508444  3
   3039   3038   3041   3044     1  0.0000000  0.6508444  3
   3039   3038   3041   3042     1  0.0000000  0.6508444  3
   3039   3038   3041   3043     1  0.0000000  0.6508444  3
   3040   3038   3041   3044     1  0.0000000  0.6508444  3
   3040   3038   3041   3042     1  0.0000000  0.6508444  3
   3040   3038   3041   3043     1  0.0000000  0.6508444  3
   3042   3041   3038   3068     1  0.0000000  1.0460000  1
   3042   3041   3038   3068     1  0.0000000  0.0000000  3
   3042   3041   3044   3047     1  0.0000000  0.6508444  3
   3042   3041   3044   3045     1  0.0000000  0.6508444  3
   3042   3041   3044   3046     1  0.0000000  0.6508444  3
   3043   3041   3038   3068     1  0.0000000  1.0460000  1
   3043   3041   3038   3068     1  0.0000000  0.0000000  3
   3043   3041   3044   3047     1  0.0000000  0.6508444  3
   3043   3041   3044   3045     1  0.0000000  0.6508444  3
   3043   3041   3044   3046     1  0.0000000  0.6508444  3
   3044   3047   3048   3049     1  0.0000000  1.2552000  3
   3044   3047   3048   3050     1  0.0000000  1.2552000  3
   3044   3047   3058   3059     1  0.0000000  1.2552000  3
   3044   3047   3058   3060     1  0.0000000  1.2552000  3
   3045   3044   3047   3048     1  0.0000000  1.2552000  3
   3045   3044   3047   3058     1  0.0000000  1.2552000  3
   3046   3044   3047   3048     1  0.0000000  1.2552000  3
   3046   3044   3047   3058     1  0.0000000  1.2552000  3
   3047   3048   3051   3052     1  0.0000000  0.6508444  3
   3047   3048   3051   3053     1  0.0000000  0.6508444  3
   3047   3058   3061   3062     1  0.0000000  0.6508444  3
   3047   3058   3061   3063     1  0.0000000  0.6508444  3
   3048   3047   3058   3059     1  0.0000000  1.2552000  3
   3048   3047   3058   3060     1  0.0000000  1.2552000  3
   3049   3048   3047   3058     1  0.0000000  1.2552000  3
   3049   3048   3051   3054     1  0.0000000  0.6508444  3
   3049   3048   3051   3052     1  0.0000000  0.6508444  3
   3049   3048   3051   3053     1  0.0000000  0.6508444  3
   3050   3048   3047   3058     1  0.0000000  1.2552000  3
   3050   3048   3051   3054     1  0.0000000  0.6508444  3
   3050   3048   3051   3052     1  0.0000000  0.6508444  3
   3050   3048   3051   3053     1  0.0000000  0.6508444  3
   3051   3054   3056   3057     1  180.0000771  9.6232000  2
   3052   3051   3054   3055     1  0.0000000  3.3472000  1
   3052   3051   3054   3055     1  0.0000000  0.0000000  2
   3052   3051   3054   3055     1  180.0000771  0.3347200  3
   3052   3051   3054   3056     1  180.0000771  0.0000000  2
   3053   3051   3054   3055     1  0.0000000  3.3472000  1
   3053   3051   3054   3055     1  0.0000000  0.0000000  2
   3053   3051   3054   3055     1  180.0000771  0.3347200  3
   3053   3051   3054   3056     1  180.0000771  0.0000000  2
   3055   3054   3056   3057     1  0.0000000  7.9496000  1
   3055   3054   3056   3057     1  180.0000771  9.6232000  2
   3059   3058   3061   3064     1  0.0000000  0.6508444  3
   3059   3058   3061   3062     1  0.0000000  0.6508444  3
   3059   3058   3061   3063     1  0.0000000  0.6508444  3
   3060   3058   3061   3064     1  0.0000000  0.6508444  3
   3060   3058   3061   3062     1  0.0000000  0.6508444  3
   3060   3058   3061   3063     1  0.0000000  0.6508444  3
   3061   3064   3066   3067     1  180.0000771  9.6232000  2
   3062   3061   3064   3065     1  0.0000000  3.3472000  1
   3062   3061   3064   3065     1  0.0000000  0.0000000  2
   3062   3061   3064   3065     1  180.0000771  0.3347200  3
   3062   3061   3064   3066     1  180.0000771  0.0000000  2
   3063   3061   3064   3065     1  0.0000000  3.3472000  1
   3063   3061   3064   3065     1  0.0000000  0.0000000  2
   3063   3061   3064   3065     1  180.0000771  0.3347200  3
   3063   3061   3064   3066     1  180.0000771  0.0000000  2
   3065   3064   3066   3067     1  0.0000000  7.9496000  1
   3065   3064   3066   3067     1  180.0000771  9.6232000  2
   3069   3072   3075   3076     1  0.0000000  0.6508444  3
   3069   3072   3075   3077     1  0.0000000  0.6508444  3
   3070   3069   3072   3075     1  0.0000000  0.6508444  3
   3070   3069   3072   3073     1  0.0000000  0.6508444  3
   3070   3069   3072   3074     1  0.0000000  0.6508444  3
   3071   3069   3072   3075     1  0.0000000  0.6508444  3
   3071   3069   3072   3073     1  0.0000000  0.6508444  3
   3071   3069   3072   3074     1  0.0000000  0.6508444  3
   3073   3072   3075   3078     1  0.0000000  0.6508444  3
   3073   3072   3075   3076     1  0.0000000  0.6508444  3
   3073   3072   3075   3077     1  0.0000000  0.6508444  3
   3073   3072   3069   3099     1  0.0000000  1.0460000  1
   3073   3072   3069   3099     1  0.0000000  0.0000000  3
   3074   3072   3075   3078     1  0.0000000  0.6508444  3
   3074   3072   3075   3076     1  0.0000000  0.6508444  3
   3074   3072   3075   3077     1  0.0000000  0.6508444  3
   3074   3072   3069   3099     1  0.0000000  1.0460000  1
   3074   3072   3069   3099     1  0.0000000  0.0000000  3
   3075   3078   3079   3080     1  0.0000000  1.2552000  3
   3075   3078   3079   3081     1  0.0000000  1.2552000  3
   3075   3078   3089   3090     1  0.0000000  1.2552000  3
   3075   3078   3089   3091     1  0.0000000  1.2552000  3
   3076   3075   3078   3079     1  0.0000000  1.2552000  3
   3076   3075   3078   3089     1  0.0000000  1.2552000  3
   3077   3075   3078   3079     1  0.0000000  1.2552000  3
   3077   3075   3078   3089     1  0.0000000  1.2552000  3
   3078   3079   3082   3083     1  0.0000000  0.6508444  3
   3078   3079   3082   3084     1  0.0000000  0.6508444  3
   3078   3089   3092   3093     1  0.0000000  0.6508444  3
   3078   3089   3092   3094     1  0.0000000  0.6508444  3
   3079   3078   3089   3090     1  0.0000000  1.2552000  3
   3079   3078   3089   3091     1  0.0000000  1.2552000  3
   3080   3079   3082   3085     1  0.0000000  0.6508444  3
   3080   3079   3082   3083     1  0.0000000  0.6508444  3
   3080   3079   3082   3084     1  0.0000000  0.6508444  3
   3080   3079   3078   3089     1  0.0000000  1.2552000  3
   3081   3079   3082   3085     1  0.0000000  0.6508444  3
   3081   3079   3082   3083     1  0.0000000  0.6508444  3
   3081   3079   3082   3084     1  0.0000000  0.6508444  3
   3081   3079   3078   3089     1  0.0000000  1.2552000  3
   3082   3085   3087   3088     1  180.0000771  9.6232000  2
   3083   3082   3085   3086     1  0.0000000  3.3472000  1
   3083   3082   3085   3086     1  0.0000000  0.0000000  2
   3083   3082   3085   3086     1  180.0000771  0.3347200  3
   3083   3082   3085   3087     1  180.0000771  0.0000000  2
   3084   3082   3085   3086     1  0.0000000  3.3472000  1
   3084   3082   3085   3086     1  0.0000000  0.0000000  2
   3084   3082   3085   3086     1  180.0000771  0.3347200  3
   3084   3082   3085   3087     1  180.0000771  0.0000000  2
   3086   3085   3087   3088     1  0.0000000  7.9496000  1
   3086   3085   3087   3088     1  180.0000771  9.6232000  2
   3090   3089   3092   3095     1  0.0000000  0.6508444  3
   3090   3089   3092   3093     1  0.0000000  0.6508444  3
   3090   3089   3092   3094     1  0.0000000  0.6508444  3
   3091   3089   3092   3095     1  0.0000000  0.6508444  3
   3091   3089   3092   3093     1  0.0000000  0.6508444  3
   3091   3089   3092   3094     1  0.0000000  0.6508444  3
   3092   3095   3097   3098     1  180.0000771  9.6232000  2
   3093   3092   3095   3096     1  0.0000000  3.3472000  1
   3093   3092   3095   3096     1  0.0000000  0.0000000  2
   3093   3092   3095   3096     1  180.0000771  0.3347200  3
   3093   3092   3095   3097     1  180.0000771  0.0000000  2
   3094   3092   3095   3096     1  0.0000000  3.3472000  1
   3094   3092   3095   3096     1  0.0000000  0.0000000  2
   3094   3092   3095   3096     1  180.0000771  0.3347200  3
   3094   3092   3095   3097     1  180.0000771  0.0000000  2
   3096   3095   3097   3098     1  0.0000000  7.9496000  1
   3096   3095   3097   3098     1  180.0000771  9.6232000  2
   3100   3103   3106   3107     1  0.0000000  0.6508444  3
   3100   3103   3106   3108     1  0.0000000  0.6508444  3
   3101   3100   3103   3106     1  0.0000000  0.6508444  3
   3101   3100   3103   3104     1  0.0000000  0.6508444  3
   3101   3100   3103   3105     1  0.0000000  0.6508444  3
   3102   3100   3103   3106     1  0.0000000  0.6508444  3
   3102   3100   3103   3104     1  0.0000000  0.6508444  3
   3102   3100   3103   3105     1  0.0000000  0.6508444  3
   3104   3103   3100   3130     1  0.0000000  1.0460000  1
   3104   3103   3100   3130     1  0.0000000  0.0000000  3
   3104   3103   3106   3109     1  0.0000000  0.6508444  3
   3104   3103   3106   3107     1  0.0000000  0.6508444  3
   3104   3103   3106   3108     1  0.0000000  0.6508444  3
   3105   3103   3100   3130     1  0.0000000  1.0460000  1
   3105   3103   3100   3130     1  0.0000000  0.0000000  3
   3105   3103   3106   3109     1  0.0000000  0.6508444  3
   3105   3103   3106   3107     1  0.0000000  0.6508444  3
   3105   3103   3106   3108     1  0.0000000  0.6508444  3
   3106   3109   3110   3111     1  0.0000000  1.2552000  3
   3106   3109   3110   3112     1  0.0000000  1.2552000  3
   3106   3109   3120   3121     1  0.0000000  1.2552000  3
   3106   3109   3120   3122     1  0.0000000  1.2552000  3
   3107   3106   3109   3110     1  0.0000000  1.2552000  3
   3107   3106   3109   3120     1  0.0000000  1.2552000  3
   3108   3106   3109   3110     1  0.0000000  1.2552000  3
   3108   3106   3109   3120     1  0.0000000  1.2552000  3
   3109   3110   3113   3114     1  0.0000000  0.6508444  3
   3109   3110   3113   3115     1  0.0000000  0.6508444  3
   3109   3120   3123   3124     1  0.0000000  0.6508444  3
   3109   3120   3123   3125     1  0.0000000  0.6508444  3
   3110   3109   3120   3121     1  0.0000000  1.2552000  3
   3110   3109   3120   3122     1  0.0000000  1.2552000  3
   3111   3110   3109   3120     1  0.0000000  1.2552000  3
   3111   3110   3113   3116     1  0.0000000  0.6508444  3
   3111   3110   3113   3114     1  0.0000000  0.6508444  3
   3111   3110   3113   3115     1  0.0000000  0.6508444  3
   3112   3110   3109   3120     1  0.0000000  1.2552000  3
   3112   3110   3113   3116     1  0.0000000  0.6508444  3
   3112   3110   3113   3114     1  0.0000000  0.6508444  3
   3112   3110   3113   3115     1  0.0000000  0.6508444  3
   3113   3116   3118   3119     1  180.0000771  9.6232000  2
   3114   3113   3116   3117     1  0.0000000  3.3472000  1
   3114   3113   3116   3117     1  0.0000000  0.0000000  2
   3114   3113   3116   3117     1  180.0000771  0.3347200  3
   3114   3113   3116   3118     1  180.0000771  0.0000000  2
   3115   3113   3116   3117     1  0.0000000  3.3472000  1
   3115   3113   3116   3117     1  0.0000000  0.0000000  2
   3115   3113   3116   3117     1  180.0000771  0.3347200  3
   3115   3113   3116   3118     1  180.0000771  0.0000000  2
   3117   3116   3118   3119     1  0.0000000  7.9496000  1
   3117   3116   3118   3119     1  180.0000771  9.6232000  2
   3121   3120   3123   3126     1  0.0000000  0.6508444  3
   3121   3120   3123   3124     1  0.0000000  0.6508444  3
   3121   3120   3123   3125     1  0.0000000  0.6508444  3
   3122   3120   3123   3126     1  0.0000000  0.6508444  3
   3122   3120   3123   3124     1  0.0000000  0.6508444  3
   3122   3120   3123   3125     1  0.0000000  0.6508444  3
   3123   3126   3128   3129     1  180.0000771  9.6232000  2
   3124   3123   3126   3127     1  0.0000000  3.3472000  1
   3124   3123   3126   3127     1  0.0000000  0.0000000  2
   3124   3123   3126   3127     1  180.0000771  0.3347200  3
   3124   3123   3126   3128     1  180.0000771  0.0000000  2
   3125   3123   3126   3127     1  0.0000000  3.3472000  1
   3125   3123   3126   3127     1  0.0000000  0.0000000  2
   3125   3123   3126   3127     1  180.0000771  0.3347200  3
   3125   3123   3126   3128     1  180.0000771  0.0000000  2
   3127   3126   3128   3129     1  0.0000000  7.9496000  1
   3127   3126   3128   3129     1  180.0000771  9.6232000  2
   3131   3134   3137   3138     1  0.0000000  0.6508444  3
   3131   3134   3137   3139     1  0.0000000  0.6508444  3
   3132   3131   3134   3137     1  0.0000000  0.6508444  3
   3132   3131   3134   3135     1  0.0000000  0.6508444  3
   3132   3131   3134   3136     1  0.0000000  0.6508444  3
   3133   3131   3134   3137     1  0.0000000  0.6508444  3
   3133   3131   3134   3135     1  0.0000000  0.6508444  3
   3133   3131   3134   3136     1  0.0000000  0.6508444  3
   3135   3134   3137   3140     1  0.0000000  0.6508444  3
   3135   3134   3137   3138     1  0.0000000  0.6508444  3
   3135   3134   3137   3139     1  0.0000000  0.6508444  3
   3135   3134   3131   3161     1  0.0000000  1.0460000  1
   3135   3134   3131   3161     1  0.0000000  0.0000000  3
   3136   3134   3137   3140     1  0.0000000  0.6508444  3
   3136   3134   3137   3138     1  0.0000000  0.6508444  3
   3136   3134   3137   3139     1  0.0000000  0.6508444  3
   3136   3134   3131   3161     1  0.0000000  1.0460000  1
   3136   3134   3131   3161     1  0.0000000  0.0000000  3
   3137   3140   3141   3142     1  0.0000000  1.2552000  3
   3137   3140   3141   3143     1  0.0000000  1.2552000  3
   3137   3140   3151   3152     1  0.0000000  1.2552000  3
   3137   3140   3151   3153     1  0.0000000  1.2552000  3
   3138   3137   3140   3141     1  0.0000000  1.2552000  3
   3138   3137   3140   3151     1  0.0000000  1.2552000  3
   3139   3137   3140   3141     1  0.0000000  1.2552000  3
   3139   3137   3140   3151     1  0.0000000  1.2552000  3
   3140   3141   3144   3145     1  0.0000000  0.6508444  3
   3140   3141   3144   3146     1  0.0000000  0.6508444  3
   3140   3151   3154   3155     1  0.0000000  0.6508444  3
   3140   3151   3154   3156     1  0.0000000  0.6508444  3
   3141   3140   3151   3152     1  0.0000000  1.2552000  3
   3141   3140   3151   3153     1  0.0000000  1.2552000  3
   3142   3141   3144   3147     1  0.0000000  0.6508444  3
   3142   3141   3144   3145     1  0.0000000  0.6508444  3
   3142   3141   3144   3146     1  0.0000000  0.6508444  3
   3142   3141   3140   3151     1  0.0000000  1.2552000  3
   3143   3141   3144   3147     1  0.0000000  0.6508444  3
   3143   3141   3144   3145     1  0.0000000  0.6508444  3
   3143   3141   3144   3146     1  0.0000000  0.6508444  3
   3143   3141   3140   3151     1  0.0000000  1.2552000  3
   3144   3147   3149   3150     1  180.0000771  9.6232000  2
   3145   3144   3147   3148     1  0.0000000  3.3472000  1
   3145   3144   3147   3148     1  0.0000000  0.0000000  2
   3145   3144   3147   3148     1  180.0000771  0.3347200  3
   3145   3144   3147   3149     1  180.0000771  0.0000000  2
   3146   3144   3147   3148     1  0.0000000  3.3472000  1
   3146   3144   3147   3148     1  0.0000000  0.0000000  2
   3146   3144   3147   3148     1  180.0000771  0.3347200  3
   3146   3144   3147   3149     1  180.0000771  0.0000000  2
   3148   3147   3149   3150     1  0.0000000  7.9496000  1
   3148   3147   3149   3150     1  180.0000771  9.6232000  2
   3152   3151   3154   3157     1  0.0000000  0.6508444  3
   3152   3151   3154   3155     1  0.0000000  0.6508444  3
   3152   3151   3154   3156     1  0.0000000  0.6508444  3
   3153   3151   3154   3157     1  0.0000000  0.6508444  3
   3153   3151   3154   3155     1  0.0000000  0.6508444  3
   3153   3151   3154   3156     1  0.0000000  0.6508444  3
   3154   3157   3159   3160     1  180.0000771  9.6232000  2
   3155   3154   3157   3158     1  0.0000000  3.3472000  1
   3155   3154   3157   3158     1  0.0000000  0.0000000  2
   3155   3154   3157   3158     1  180.0000771  0.3347200  3
   3155   3154   3157   3159     1  180.0000771  0.0000000  2
   3156   3154   3157   3158     1  0.0000000  3.3472000  1
   3156   3154   3157   3158     1  0.0000000  0.0000000  2
   3156   3154   3157   3158     1  180.0000771  0.3347200  3
   3156   3154   3157   3159     1  180.0000771  0.0000000  2
   3158   3157   3159   3160     1  0.0000000  7.9496000  1
   3158   3157   3159   3160     1  180.0000771  9.6232000  2
   3162   3165   3168   3169     1  0.0000000  0.6508444  3
   3162   3165   3168   3170     1  0.0000000  0.6508444  3
   3163   3162   3165   3168     1  0.0000000  0.6508444  3
   3163   3162   3165   3166     1  0.0000000  0.6508444  3
   3163   3162   3165   3167     1  0.0000000  0.6508444  3
   3164   3162   3165   3168     1  0.0000000  0.6508444  3
   3164   3162   3165   3166     1  0.0000000  0.6508444  3
   3164   3162   3165   3167     1  0.0000000  0.6508444  3
   3166   3165   3162   3192     1  0.0000000  1.0460000  1
   3166   3165   3162   3192     1  0.0000000  0.0000000  3
   3166   3165   3168   3171     1  0.0000000  0.6508444  3
   3166   3165   3168   3169     1  0.0000000  0.6508444  3
   3166   3165   3168   3170     1  0.0000000  0.6508444  3
   3167   3165   3162   3192     1  0.0000000  1.0460000  1
   3167   3165   3162   3192     1  0.0000000  0.0000000  3
   3167   3165   3168   3171     1  0.0000000  0.6508444  3
   3167   3165   3168   3169     1  0.0000000  0.6508444  3
   3167   3165   3168   3170     1  0.0000000  0.6508444  3
   3168   3171   3172   3173     1  0.0000000  1.2552000  3
   3168   3171   3172   3174     1  0.0000000  1.2552000  3
   3168   3171   3182   3183     1  0.0000000  1.2552000  3
   3168   3171   3182   3184     1  0.0000000  1.2552000  3
   3169   3168   3171   3172     1  0.0000000  1.2552000  3
   3169   3168   3171   3182     1  0.0000000  1.2552000  3
   3170   3168   3171   3172     1  0.0000000  1.2552000  3
   3170   3168   3171   3182     1  0.0000000  1.2552000  3
   3171   3172   3175   3176     1  0.0000000  0.6508444  3
   3171   3172   3175   3177     1  0.0000000  0.6508444  3
   3171   3182   3185   3186     1  0.0000000  0.6508444  3
   3171   3182   3185   3187     1  0.0000000  0.6508444  3
   3172   3171   3182   3183     1  0.0000000  1.2552000  3
   3172   3171   3182   3184     1  0.0000000  1.2552000  3
   3173   3172   3171   3182     1  0.0000000  1.2552000  3
   3173   3172   3175   3178     1  0.0000000  0.6508444  3
   3173   3172   3175   3176     1  0.0000000  0.6508444  3
   3173   3172   3175   3177     1  0.0000000  0.6508444  3
   3174   3172   3171   3182     1  0.0000000  1.2552000  3
   3174   3172   3175   3178     1  0.0000000  0.6508444  3
   3174   3172   3175   3176     1  0.0000000  0.6508444  3
   3174   3172   3175   3177     1  0.0000000  0.6508444  3
   3175   3178   3180   3181     1  180.0000771  9.6232000  2
   3176   3175   3178   3179     1  0.0000000  3.3472000  1
   3176   3175   3178   3179     1  0.0000000  0.0000000  2
   3176   3175   3178   3179     1  180.0000771  0.3347200  3
   3176   3175   3178   3180     1  180.0000771  0.0000000  2
   3177   3175   3178   3179     1  0.0000000  3.3472000  1
   3177   3175   3178   3179     1  0.0000000  0.0000000  2
   3177   3175   3178   3179     1  180.0000771  0.3347200  3
   3177   3175   3178   3180     1  180.0000771  0.0000000  2
   3179   3178   3180   3181     1  0.0000000  7.9496000  1
   3179   3178   3180   3181     1  180.0000771  9.6232000  2
   3183   3182   3185   3188     1  0.0000000  0.6508444  3
   3183   3182   3185   3186     1  0.0000000  0.6508444  3
   3183   3182   3185   3187     1  0.0000000  0.6508444  3
   3184   3182   3185   3188     1  0.0000000  0.6508444  3
   3184   3182   3185   3186     1  0.0000000  0.6508444  3
   3184   3182   3185   3187     1  0.0000000  0.6508444  3
   3185   3188   3190   3191     1  180.0000771  9.6232000  2
   3186   3185   3188   3189     1  0.0000000  3.3472000  1
   3186   3185   3188   3189     1  0.0000000  0.0000000  2
   3186   3185   3188   3189     1  180.0000771  0.3347200  3
   3186   3185   3188   3190     1  180.0000771  0.0000000  2
   3187   3185   3188   3189     1  0.0000000  3.3472000  1
   3187   3185   3188   3189     1  0.0000000  0.0000000  2
   3187   3185   3188   3189     1  180.0000771  0.3347200  3
   3187   3185   3188   3190     1  180.0000771  0.0000000  2
   3189   3188   3190   3191     1  0.0000000  7.9496000  1
   3189   3188   3190   3191     1  180.0000771  9.6232000  2
   3193   3196   3199   3200     1  0.0000000  0.6508444  3
   3193   3196   3199   3201     1  0.0000000  0.6508444  3
   3194   3193   3196   3199     1  0.0000000  0.6508444  3
   3194   3193   3196   3197     1  0.0000000  0.6508444  3
   3194   3193   3196   3198     1  0.0000000  0.6508444  3
   3195   3193   3196   3199     1  0.0000000  0.6508444  3
   3195   3193   3196   3197     1  0.0000000  0.6508444  3
   3195   3193   3196   3198     1  0.0000000  0.6508444  3
   3197   3196   3199   3202     1  0.0000000  0.6508444  3
   3197   3196   3199   3200     1  0.0000000  0.6508444  3
   3197   3196   3199   3201     1  0.0000000  0.6508444  3
   3197   3196   3193   3223     1  0.0000000  1.0460000  1
   3197   3196   3193   3223     1  0.0000000  0.0000000  3
   3198   3196   3199   3202     1  0.0000000  0.6508444  3
   3198   3196   3199   3200     1  0.0000000  0.6508444  3
   3198   3196   3199   3201     1  0.0000000  0.6508444  3
   3198   3196   3193   3223     1  0.0000000  1.0460000  1
   3198   3196   3193   3223     1  0.0000000  0.0000000  3
   3199   3202   3203   3204     1  0.0000000  1.2552000  3
   3199   3202   3203   3205     1  0.0000000  1.2552000  3
   3199   3202   3213   3214     1  0.0000000  1.2552000  3
   3199   3202   3213   3215     1  0.0000000  1.2552000  3
   3200   3199   3202   3203     1  0.0000000  1.2552000  3
   3200   3199   3202   3213     1  0.0000000  1.2552000  3
   3201   3199   3202   3203     1  0.0000000  1.2552000  3
   3201   3199   3202   3213     1  0.0000000  1.2552000  3
   3202   3203   3206   3207     1  0.0000000  0.6508444  3
   3202   3203   3206   3208     1  0.0000000  0.6508444  3
   3202   3213   3216   3217     1  0.0000000  0.6508444  3
   3202   3213   3216   3218     1  0.0000000  0.6508444  3
   3203   3202   3213   3214     1  0.0000000  1.2552000  3
   3203   3202   3213   3215     1  0.0000000  1.2552000  3
   3204   3203   3206   3209     1  0.0000000  0.6508444  3
   3204   3203   3206   3207     1  0.0000000  0.6508444  3
   3204   3203   3206   3208     1  0.0000000  0.6508444  3
   3204   3203   3202   3213     1  0.0000000  1.2552000  3
   3205   3203   3206   3209     1  0.0000000  0.6508444  3
   3205   3203   3206   3207     1  0.0000000  0.6508444  3
   3205   3203   3206   3208     1  0.0000000  0.6508444  3
   3205   3203   3202   3213     1  0.0000000  1.2552000  3
   3206   3209   3211   3212     1  180.0000771  9.6232000  2
   3207   3206   3209   3210     1  0.0000000  3.3472000  1
   3207   3206   3209   3210     1  0.0000000  0.0000000  2
   3207   3206   3209   3210     1  180.0000771  0.3347200  3
   3207   3206   3209   3211     1  180.0000771  0.0000000  2
   3208   3206   3209   3210     1  0.0000000  3.3472000  1
   3208   3206   3209   3210     1  0.0000000  0.0000000  2
   3208   3206   3209   3210     1  180.0000771  0.3347200  3
   3208   3206   3209   3211     1  180.0000771  0.0000000  2
   3210   3209   3211   3212     1  0.0000000  7.9496000  1
   3210   3209   3211   3212     1  180.0000771  9.6232000  2
   3214   3213   3216   3219     1  0.0000000  0.6508444  3
   3214   3213   3216   3217     1  0.0000000  0.6508444  3
   3214   3213   3216   3218     1  0.0000000  0.6508444  3
   3215   3213   3216   3219     1  0.0000000  0.6508444  3
   3215   3213   3216   3217     1  0.0000000  0.6508444  3
   3215   3213   3216   3218     1  0.0000000  0.6508444  3
   3216   3219   3221   3222     1  180.0000771  9.6232000  2
   3217   3216   3219   3220     1  0.0000000  3.3472000  1
   3217   3216   3219   3220     1  0.0000000  0.0000000  2
   3217   3216   3219   3220     1  180.0000771  0.3347200  3
   3217   3216   3219   3221     1  180.0000771  0.0000000  2
   3218   3216   3219   3220     1  0.0000000  3.3472000  1
   3218   3216   3219   3220     1  0.0000000  0.0000000  2
   3218   3216   3219   3220     1  180.0000771  0.3347200  3
   3218   3216   3219   3221     1  180.0000771  0.0000000  2
   3220   3219   3221   3222     1  0.0000000  7.9496000  1
   3220   3219   3221   3222     1  180.0000771  9.6232000  2
   3224   3227   3230   3231     1  0.0000000  0.6508444  3
   3224   3227   3230   3232     1  0.0000000  0.6508444  3
   3225   3224   3227   3230     1  0.0000000  0.6508444  3
   3225   3224   3227   3228     1  0.0000000  0.6508444  3
   3225   3224   3227   3229     1  0.0000000  0.6508444  3
   3226   3224   3227   3230     1  0.0000000  0.6508444  3
   3226   3224   3227   3228     1  0.0000000  0.6508444  3
   3226   3224   3227   3229     1  0.0000000  0.6508444  3
   3228   3227   3224   3254     1  0.0000000  1.0460000  1
   3228   3227   3224   3254     1  0.0000000  0.0000000  3
   3228   3227   3230   3233     1  0.0000000  0.6508444  3
   3228   3227   3230   3231     1  0.0000000  0.6508444  3
   3228   3227   3230   3232     1  0.0000000  0.6508444  3
   3229   3227   3224   3254     1  0.0000000  1.0460000  1
   3229   3227   3224   3254     1  0.0000000  0.0000000  3
   3229   3227   3230   3233     1  0.0000000  0.6508444  3
   3229   3227   3230   3231     1  0.0000000  0.6508444  3
   3229   3227   3230   3232     1  0.0000000  0.6508444  3
   3230   3233   3234   3235     1  0.0000000  1.2552000  3
   3230   3233   3234   3236     1  0.0000000  1.2552000  3
   3230   3233   3244   3245     1  0.0000000  1.2552000  3
   3230   3233   3244   3246     1  0.0000000  1.2552000  3
   3231   3230   3233   3234     1  0.0000000  1.2552000  3
   3231   3230   3233   3244     1  0.0000000  1.2552000  3
   3232   3230   3233   3234     1  0.0000000  1.2552000  3
   3232   3230   3233   3244     1  0.0000000  1.2552000  3
   3233   3234   3237   3238     1  0.0000000  0.6508444  3
   3233   3234   3237   3239     1  0.0000000  0.6508444  3
   3233   3244   3247   3248     1  0.0000000  0.6508444  3
   3233   3244   3247   3249     1  0.0000000  0.6508444  3
   3234   3233   3244   3245     1  0.0000000  1.2552000  3
   3234   3233   3244   3246     1  0.0000000  1.2552000  3
   3235   3234   3233   3244     1  0.0000000  1.2552000  3
   3235   3234   3237   3240     1  0.0000000  0.6508444  3
   3235   3234   3237   3238     1  0.0000000  0.6508444  3
   3235   3234   3237   3239     1  0.0000000  0.6508444  3
   3236   3234   3233   3244     1  0.0000000  1.2552000  3
   3236   3234   3237   3240     1  0.0000000  0.6508444  3
   3236   3234   3237   3238     1  0.0000000  0.6508444  3
   3236   3234   3237   3239     1  0.0000000  0.6508444  3
   3237   3240   3242   3243     1  180.0000771  9.6232000  2
   3238   3237   3240   3241     1  0.0000000  3.3472000  1
   3238   3237   3240   3241     1  0.0000000  0.0000000  2
   3238   3237   3240   3241     1  180.0000771  0.3347200  3
   3238   3237   3240   3242     1  180.0000771  0.0000000  2
   3239   3237   3240   3241     1  0.0000000  3.3472000  1
   3239   3237   3240   3241     1  0.0000000  0.0000000  2
   3239   3237   3240   3241     1  180.0000771  0.3347200  3
   3239   3237   3240   3242     1  180.0000771  0.0000000  2
   3241   3240   3242   3243     1  0.0000000  7.9496000  1
   3241   3240   3242   3243     1  180.0000771  9.6232000  2
   3245   3244   3247   3250     1  0.0000000  0.6508444  3
   3245   3244   3247   3248     1  0.0000000  0.6508444  3
   3245   3244   3247   3249     1  0.0000000  0.6508444  3
   3246   3244   3247   3250     1  0.0000000  0.6508444  3
   3246   3244   3247   3248     1  0.0000000  0.6508444  3
   3246   3244   3247   3249     1  0.0000000  0.6508444  3
   3247   3250   3252   3253     1  180.0000771  9.6232000  2
   3248   3247   3250   3251     1  0.0000000  3.3472000  1
   3248   3247   3250   3251     1  0.0000000  0.0000000  2
   3248   3247   3250   3251     1  180.0000771  0.3347200  3
   3248   3247   3250   3252     1  180.0000771  0.0000000  2
   3249   3247   3250   3251     1  0.0000000  3.3472000  1
   3249   3247   3250   3251     1  0.0000000  0.0000000  2
   3249   3247   3250   3251     1  180.0000771  0.3347200  3
   3249   3247   3250   3252     1  180.0000771  0.0000000  2
   3251   3250   3252   3253     1  0.0000000  7.9496000  1
   3251   3250   3252   3253     1  180.0000771  9.6232000  2
   3255   3258   3261   3262     1  0.0000000  0.6508444  3
   3255   3258   3261   3263     1  0.0000000  0.6508444  3
   3256   3255   3258   3261     1  0.0000000  0.6508444  3
   3256   3255   3258   3259     1  0.0000000  0.6508444  3
   3256   3255   3258   3260     1  0.0000000  0.6508444  3
   3257   3255   3258   3261     1  0.0000000  0.6508444  3
   3257   3255   3258   3259     1  0.0000000  0.6508444  3
   3257   3255   3258   3260     1  0.0000000  0.6508444  3
   3259   3258   3261   3264     1  0.0000000  0.6508444  3
   3259   3258   3261   3262     1  0.0000000  0.6508444  3
   3259   3258   3261   3263     1  0.0000000  0.6508444  3
   3259   3258   3255   3285     1  0.0000000  1.0460000  1
   3259   3258   3255   3285     1  0.0000000  0.0000000  3
   3260   3258   3261   3264     1  0.0000000  0.6508444  3
   3260   3258   3261   3262     1  0.0000000  0.6508444  3
   3260   3258   3261   3263     1  0.0000000  0.6508444  3
   3260   3258   3255   3285     1  0.0000000  1.0460000  1
   3260   3258   3255   3285     1  0.0000000  0.0000000  3
   3261   3264   3265   3266     1  0.0000000  1.2552000  3
   3261   3264   3265   3267     1  0.0000000  1.2552000  3
   3261   3264   3275   3276     1  0.0000000  1.2552000  3
   3261   3264   3275   3277     1  0.0000000  1.2552000  3
   3262   3261   3264   3265     1  0.0000000  1.2552000  3
   3262   3261   3264   3275     1  0.0000000  1.2552000  3
   3263   3261   3264   3265     1  0.0000000  1.2552000  3
   3263   3261   3264   3275     1  0.0000000  1.2552000  3
   3264   3265   3268   3269     1  0.0000000  0.6508444  3
   3264   3265   3268   3270     1  0.0000000  0.6508444  3
   3264   3275   3278   3279     1  0.0000000  0.6508444  3
   3264   3275   3278   3280     1  0.0000000  0.6508444  3
   3265   3264   3275   3276     1  0.0000000  1.2552000  3
   3265   3264   3275   3277     1  0.0000000  1.2552000  3
   3266   3265   3268   3271     1  0.0000000  0.6508444  3
   3266   3265   3268   3269     1  0.0000000  0.6508444  3
   3266   3265   3268   3270     1  0.0000000  0.6508444  3
   3266   3265   3264   3275     1  0.0000000  1.2552000  3
   3267   3265   3268   3271     1  0.0000000  0.6508444  3
   3267   3265   3268   3269     1  0.0000000  0.6508444  3
   3267   3265   3268   3270     1  0.0000000  0.6508444  3
   3267   3265   3264   3275     1  0.0000000  1.2552000  3
   3268   3271   3273   3274     1  180.0000771  9.6232000  2
   3269   3268   3271   3272     1  0.0000000  3.3472000  1
   3269   3268   3271   3272     1  0.0000000  0.0000000  2
   3269   3268   3271   3272     1  180.0000771  0.3347200  3
   3269   3268   3271   3273     1  180.0000771  0.0000000  2
   3270   3268   3271   3272     1  0.0000000  3.3472000  1
   3270   3268   3271   3272     1  0.0000000  0.0000000  2
   3270   3268   3271   3272     1  180.0000771  0.3347200  3
   3270   3268   3271   3273     1  180.0000771  0.0000000  2
   3272   3271   3273   3274     1  0.0000000  7.9496000  1
   3272   3271   3273   3274     1  180.0000771  9.6232000  2
   3276   3275   3278   3281     1  0.0000000  0.6508444  3
   3276   3275   3278   3279     1  0.0000000  0.6508444  3
   3276   3275   3278   3280     1  0.0000000  0.6508444  3
   3277   3275   3278   3281     1  0.0000000  0.6508444  3
   3277   3275   3278   3279     1  0.0000000  0.6508444  3
   3277   3275   3278   3280     1  0.0000000  0.6508444  3
   3278   3281   3283   3284     1  180.0000771  9.6232000  2
   3279   3278   3281   3282     1  0.0000000  3.3472000  1
   3279   3278   3281   3282     1  0.0000000  0.0000000  2
   3279   3278   3281   3282     1  180.0000771  0.3347200  3
   3279   3278   3281   3283     1  180.0000771  0.0000000  2
   3280   3278   3281   3282     1  0.0000000  3.3472000  1
   3280   3278   3281   3282     1  0.0000000  0.0000000  2
   3280   3278   3281   3282     1  180.0000771  0.3347200  3
   3280   3278   3281   3283     1  180.0000771  0.0000000  2
   3282   3281   3283   3284     1  0.0000000  7.9496000  1
   3282   3281   3283   3284     1  180.0000771  9.6232000  2
   3286   3289   3292   3293     1  0.0000000  0.6508444  3
   3286   3289   3292   3294     1  0.0000000  0.6508444  3
   3287   3286   3289   3292     1  0.0000000  0.6508444  3
   3287   3286   3289   3290     1  0.0000000  0.6508444  3
   3287   3286   3289   3291     1  0.0000000  0.6508444  3
   3288   3286   3289   3292     1  0.0000000  0.6508444  3
   3288   3286   3289   3290     1  0.0000000  0.6508444  3
   3288   3286   3289   3291     1  0.0000000  0.6508444  3
   3290   3289   3286   3316     1  0.0000000  1.0460000  1
   3290   3289   3286   3316     1  0.0000000  0.0000000  3
   3290   3289   3292   3295     1  0.0000000  0.6508444  3
   3290   3289   3292   3293     1  0.0000000  0.6508444  3
   3290   3289   3292   3294     1  0.0000000  0.6508444  3
   3291   3289   3286   3316     1  0.0000000  1.0460000  1
   3291   3289   3286   3316     1  0.0000000  0.0000000  3
   3291   3289   3292   3295     1  0.0000000  0.6508444  3
   3291   3289   3292   3293     1  0.0000000  0.6508444  3
   3291   3289   3292   3294     1  0.0000000  0.6508444  3
   3292   3295   3296   3297     1  0.0000000  1.2552000  3
   3292   3295   3296   3298     1  0.0000000  1.2552000  3
   3292   3295   3306   3307     1  0.0000000  1.2552000  3
   3292   3295   3306   3308     1  0.0000000  1.2552000  3
   3293   3292   3295   3296     1  0.0000000  1.2552000  3
   3293   3292   3295   3306     1  0.0000000  1.2552000  3
   3294   3292   3295   3296     1  0.0000000  1.2552000  3
   3294   3292   3295   3306     1  0.0000000  1.2552000  3
   3295   3296   3299   3300     1  0.0000000  0.6508444  3
   3295   3296   3299   3301     1  0.0000000  0.6508444  3
   3295   3306   3309   3310     1  0.0000000  0.6508444  3
   3295   3306   3309   3311     1  0.0000000  0.6508444  3
   3296   3295   3306   3307     1  0.0000000  1.2552000  3
   3296   3295   3306   3308     1  0.0000000  1.2552000  3
   3297   3296   3295   3306     1  0.0000000  1.2552000  3
   3297   3296   3299   3302     1  0.0000000  0.6508444  3
   3297   3296   3299   3300     1  0.0000000  0.6508444  3
   3297   3296   3299   3301     1  0.0000000  0.6508444  3
   3298   3296   3295   3306     1  0.0000000  1.2552000  3
   3298   3296   3299   3302     1  0.0000000  0.6508444  3
   3298   3296   3299   3300     1  0.0000000  0.6508444  3
   3298   3296   3299   3301     1  0.0000000  0.6508444  3
   3299   3302   3304   3305     1  180.0000771  9.6232000  2
   3300   3299   3302   3303     1  0.0000000  3.3472000  1
   3300   3299   3302   3303     1  0.0000000  0.0000000  2
   3300   3299   3302   3303     1  180.0000771  0.3347200  3
   3300   3299   3302   3304     1  180.0000771  0.0000000  2
   3301   3299   3302   3303     1  0.0000000  3.3472000  1
   3301   3299   3302   3303     1  0.0000000  0.0000000  2
   3301   3299   3302   3303     1  180.0000771  0.3347200  3
   3301   3299   3302   3304     1  180.0000771  0.0000000  2
   3303   3302   3304   3305     1  0.0000000  7.9496000  1
   3303   3302   3304   3305     1  180.0000771  9.6232000  2
   3307   3306   3309   3312     1  0.0000000  0.6508444  3
   3307   3306   3309   3310     1  0.0000000  0.6508444  3
   3307   3306   3309   3311     1  0.0000000  0.6508444  3
   3308   3306   3309   3312     1  0.0000000  0.6508444  3
   3308   3306   3309   3310     1  0.0000000  0.6508444  3
   3308   3306   3309   3311     1  0.0000000  0.6508444  3
   3309   3312   3314   3315     1  180.0000771  9.6232000  2
   3310   3309   3312   3313     1  0.0000000  3.3472000  1
   3310   3309   3312   3313     1  0.0000000  0.0000000  2
   3310   3309   3312   3313     1  180.0000771  0.3347200  3
   3310   3309   3312   3314     1  180.0000771  0.0000000  2
   3311   3309   3312   3313     1  0.0000000  3.3472000  1
   3311   3309   3312   3313     1  0.0000000  0.0000000  2
   3311   3309   3312   3313     1  180.0000771  0.3347200  3
   3311   3309   3312   3314     1  180.0000771  0.0000000  2
   3313   3312   3314   3315     1  0.0000000  7.9496000  1
   3313   3312   3314   3315     1  180.0000771  9.6232000  2
   3317   3320   3323   3324     1  0.0000000  0.6508444  3
   3317   3320   3323   3325     1  0.0000000  0.6508444  3
   3318   3317   3320   3323     1  0.0000000  0.6508444  3
   3318   3317   3320   3321     1  0.0000000  0.6508444  3
   3318   3317   3320   3322     1  0.0000000  0.6508444  3
   3319   3317   3320   3323     1  0.0000000  0.6508444  3
   3319   3317   3320   3321     1  0.0000000  0.6508444  3
   3319   3317   3320   3322     1  0.0000000  0.6508444  3
   3321   3320   3323   3326     1  0.0000000  0.6508444  3
   3321   3320   3323   3324     1  0.0000000  0.6508444  3
   3321   3320   3323   3325     1  0.0000000  0.6508444  3
   3321   3320   3317   3347     1  0.0000000  1.0460000  1
   3321   3320   3317   3347     1  0.0000000  0.0000000  3
   3322   3320   3323   3326     1  0.0000000  0.6508444  3
   3322   3320   3323   3324     1  0.0000000  0.6508444  3
   3322   3320   3323   3325     1  0.0000000  0.6508444  3
   3322   3320   3317   3347     1  0.0000000  1.0460000  1
   3322   3320   3317   3347     1  0.0000000  0.0000000  3
   3323   3326   3327   3328     1  0.0000000  1.2552000  3
   3323   3326   3327   3329     1  0.0000000  1.2552000  3
   3323   3326   3337   3338     1  0.0000000  1.2552000  3
   3323   3326   3337   3339     1  0.0000000  1.2552000  3
   3324   3323   3326   3327     1  0.0000000  1.2552000  3
   3324   3323   3326   3337     1  0.0000000  1.2552000  3
   3325   3323   3326   3327     1  0.0000000  1.2552000  3
   3325   3323   3326   3337     1  0.0000000  1.2552000  3
   3326   3327   3330   3331     1  0.0000000  0.6508444  3
   3326   3327   3330   3332     1  0.0000000  0.6508444  3
   3326   3337   3340   3341     1  0.0000000  0.6508444  3
   3326   3337   3340   3342     1  0.0000000  0.6508444  3
   3327   3326   3337   3338     1  0.0000000  1.2552000  3
   3327   3326   3337   3339     1  0.0000000  1.2552000  3
   3328   3327   3330   3333     1  0.0000000  0.6508444  3
   3328   3327   3330   3331     1  0.0000000  0.6508444  3
   3328   3327   3330   3332     1  0.0000000  0.6508444  3
   3328   3327   3326   3337     1  0.0000000  1.2552000  3
   3329   3327   3330   3333     1  0.0000000  0.6508444  3
   3329   3327   3330   3331     1  0.0000000  0.6508444  3
   3329   3327   3330   3332     1  0.0000000  0.6508444  3
   3329   3327   3326   3337     1  0.0000000  1.2552000  3
   3330   3333   3335   3336     1  180.0000771  9.6232000  2
   3331   3330   3333   3334     1  0.0000000  3.3472000  1
   3331   3330   3333   3334     1  0.0000000  0.0000000  2
   3331   3330   3333   3334     1  180.0000771  0.3347200  3
   3331   3330   3333   3335     1  180.0000771  0.0000000  2
   3332   3330   3333   3334     1  0.0000000  3.3472000  1
   3332   3330   3333   3334     1  0.0000000  0.0000000  2
   3332   3330   3333   3334     1  180.0000771  0.3347200  3
   3332   3330   3333   3335     1  180.0000771  0.0000000  2
   3334   3333   3335   3336     1  0.0000000  7.9496000  1
   3334   3333   3335   3336     1  180.0000771  9.6232000  2
   3338   3337   3340   3343     1  0.0000000  0.6508444  3
   3338   3337   3340   3341     1  0.0000000  0.6508444  3
   3338   3337   3340   3342     1  0.0000000  0.6508444  3
   3339   3337   3340   3343     1  0.0000000  0.6508444  3
   3339   3337   3340   3341     1  0.0000000  0.6508444  3
   3339   3337   3340   3342     1  0.0000000  0.6508444  3
   3340   3343   3345   3346     1  180.0000771  9.6232000  2
   3341   3340   3343   3344     1  0.0000000  3.3472000  1
   3341   3340   3343   3344     1  0.0000000  0.0000000  2
   3341   3340   3343   3344     1  180.0000771  0.3347200  3
   3341   3340   3343   3345     1  180.0000771  0.0000000  2
   3342   3340   3343   3344     1  0.0000000  3.3472000  1
   3342   3340   3343   3344     1  0.0000000  0.0000000  2
   3342   3340   3343   3344     1  180.0000771  0.3347200  3
   3342   3340   3343   3345     1  180.0000771  0.0000000  2
   3344   3343   3345   3346     1  0.0000000  7.9496000  1
   3344   3343   3345   3346     1  180.0000771  9.6232000  2
   3348   3351   3354   3355     1  0.0000000  0.6508444  3
   3348   3351   3354   3356     1  0.0000000  0.6508444  3
   3349   3348   3351   3354     1  0.0000000  0.6508444  3
   3349   3348   3351   3352     1  0.0000000  0.6508444  3
   3349   3348   3351   3353     1  0.0000000  0.6508444  3
   3350   3348   3351   3354     1  0.0000000  0.6508444  3
   3350   3348   3351   3352     1  0.0000000  0.6508444  3
   3350   3348   3351   3353     1  0.0000000  0.6508444  3
   3352   3351   3348   3378     1  0.0000000  1.0460000  1
   3352   3351   3348   3378     1  0.0000000  0.0000000  3
   3352   3351   3354   3357     1  0.0000000  0.6508444  3
   3352   3351   3354   3355     1  0.0000000  0.6508444  3
   3352   3351   3354   3356     1  0.0000000  0.6508444  3
   3353   3351   3348   3378     1  0.0000000  1.0460000  1
   3353   3351   3348   3378     1  0.0000000  0.0000000  3
   3353   3351   3354   3357     1  0.0000000  0.6508444  3
   3353   3351   3354   3355     1  0.0000000  0.6508444  3
   3353   3351   3354   3356     1  0.0000000  0.6508444  3
   3354   3357   3358   3359     1  0.0000000  1.2552000  3
   3354   3357   3358   3360     1  0.0000000  1.2552000  3
   3354   3357   3368   3369     1  0.0000000  1.2552000  3
   3354   3357   3368   3370     1  0.0000000  1.2552000  3
   3355   3354   3357   3358     1  0.0000000  1.2552000  3
   3355   3354   3357   3368     1  0.0000000  1.2552000  3
   3356   3354   3357   3358     1  0.0000000  1.2552000  3
   3356   3354   3357   3368     1  0.0000000  1.2552000  3
   3357   3358   3361   3362     1  0.0000000  0.6508444  3
   3357   3358   3361   3363     1  0.0000000  0.6508444  3
   3357   3368   3371   3372     1  0.0000000  0.6508444  3
   3357   3368   3371   3373     1  0.0000000  0.6508444  3
   3358   3357   3368   3369     1  0.0000000  1.2552000  3
   3358   3357   3368   3370     1  0.0000000  1.2552000  3
   3359   3358   3357   3368     1  0.0000000  1.2552000  3
   3359   3358   3361   3364     1  0.0000000  0.6508444  3
   3359   3358   3361   3362     1  0.0000000  0.6508444  3
   3359   3358   3361   3363     1  0.0000000  0.6508444  3
   3360   3358   3357   3368     1  0.0000000  1.2552000  3
   3360   3358   3361   3364     1  0.0000000  0.6508444  3
   3360   3358   3361   3362     1  0.0000000  0.6508444  3
   3360   3358   3361   3363     1  0.0000000  0.6508444  3
   3361   3364   3366   3367     1  180.0000771  9.6232000  2
   3362   3361   3364   3365     1  0.0000000  3.3472000  1
   3362   3361   3364   3365     1  0.0000000  0.0000000  2
   3362   3361   3364   3365     1  180.0000771  0.3347200  3
   3362   3361   3364   3366     1  180.0000771  0.0000000  2
   3363   3361   3364   3365     1  0.0000000  3.3472000  1
   3363   3361   3364   3365     1  0.0000000  0.0000000  2
   3363   3361   3364   3365     1  180.0000771  0.3347200  3
   3363   3361   3364   3366     1  180.0000771  0.0000000  2
   3365   3364   3366   3367     1  0.0000000  7.9496000  1
   3365   3364   3366   3367     1  180.0000771  9.6232000  2
   3369   3368   3371   3374     1  0.0000000  0.6508444  3
   3369   3368   3371   3372     1  0.0000000  0.6508444  3
   3369   3368   3371   3373     1  0.0000000  0.6508444  3
   3370   3368   3371   3374     1  0.0000000  0.6508444  3
   3370   3368   3371   3372     1  0.0000000  0.6508444  3
   3370   3368   3371   3373     1  0.0000000  0.6508444  3
   3371   3374   3376   3377     1  180.0000771  9.6232000  2
   3372   3371   3374   3375     1  0.0000000  3.3472000  1
   3372   3371   3374   3375     1  0.0000000  0.0000000  2
   3372   3371   3374   3375     1  180.0000771  0.3347200  3
   3372   3371   3374   3376     1  180.0000771  0.0000000  2
   3373   3371   3374   3375     1  0.0000000  3.3472000  1
   3373   3371   3374   3375     1  0.0000000  0.0000000  2
   3373   3371   3374   3375     1  180.0000771  0.3347200  3
   3373   3371   3374   3376     1  180.0000771  0.0000000  2
   3375   3374   3376   3377     1  0.0000000  7.9496000  1
   3375   3374   3376   3377     1  180.0000771  9.6232000  2
   3379   3382   3385   3386     1  0.0000000  0.6508444  3
   3379   3382   3385   3387     1  0.0000000  0.6508444  3
   3380   3379   3382   3385     1  0.0000000  0.6508444  3
   3380   3379   3382   3383     1  0.0000000  0.6508444  3
   3380   3379   3382   3384     1  0.0000000  0.6508444  3
   3381   3379   3382   3385     1  0.0000000  0.6508444  3
   3381   3379   3382   3383     1  0.0000000  0.6508444  3
   3381   3379   3382   3384     1  0.0000000  0.6508444  3
   3383   3382   3385   3388     1  0.0000000  0.6508444  3
   3383   3382   3385   3386     1  0.0000000  0.6508444  3
   3383   3382   3385   3387     1  0.0000000  0.6508444  3
   3383   3382   3379   3409     1  0.0000000  1.0460000  1
   3383   3382   3379   3409     1  0.0000000  0.0000000  3
   3384   3382   3385   3388     1  0.0000000  0.6508444  3
   3384   3382   3385   3386     1  0.0000000  0.6508444  3
   3384   3382   3385   3387     1  0.0000000  0.6508444  3
   3384   3382   3379   3409     1  0.0000000  1.0460000  1
   3384   3382   3379   3409     1  0.0000000  0.0000000  3
   3385   3388   3389   3390     1  0.0000000  1.2552000  3
   3385   3388   3389   3391     1  0.0000000  1.2552000  3
   3385   3388   3399   3400     1  0.0000000  1.2552000  3
   3385   3388   3399   3401     1  0.0000000  1.2552000  3
   3386   3385   3388   3389     1  0.0000000  1.2552000  3
   3386   3385   3388   3399     1  0.0000000  1.2552000  3
   3387   3385   3388   3389     1  0.0000000  1.2552000  3
   3387   3385   3388   3399     1  0.0000000  1.2552000  3
   3388   3389   3392   3393     1  0.0000000  0.6508444  3
   3388   3389   3392   3394     1  0.0000000  0.6508444  3
   3388   3399   3402   3403     1  0.0000000  0.6508444  3
   3388   3399   3402   3404     1  0.0000000  0.6508444  3
   3389   3388   3399   3400     1  0.0000000  1.2552000  3
   3389   3388   3399   3401     1  0.0000000  1.2552000  3
   3390   3389   3392   3395     1  0.0000000  0.6508444  3
   3390   3389   3392   3393     1  0.0000000  0.6508444  3
   3390   3389   3392   3394     1  0.0000000  0.6508444  3
   3390   3389   3388   3399     1  0.0000000  1.2552000  3
   3391   3389   3392   3395     1  0.0000000  0.6508444  3
   3391   3389   3392   3393     1  0.0000000  0.6508444  3
   3391   3389   3392   3394     1  0.0000000  0.6508444  3
   3391   3389   3388   3399     1  0.0000000  1.2552000  3
   3392   3395   3397   3398     1  180.0000771  9.6232000  2
   3393   3392   3395   3396     1  0.0000000  3.3472000  1
   3393   3392   3395   3396     1  0.0000000  0.0000000  2
   3393   3392   3395   3396     1  180.0000771  0.3347200  3
   3393   3392   3395   3397     1  180.0000771  0.0000000  2
   3394   3392   3395   3396     1  0.0000000  3.3472000  1
   3394   3392   3395   3396     1  0.0000000  0.0000000  2
   3394   3392   3395   3396     1  180.0000771  0.3347200  3
   3394   3392   3395   3397     1  180.0000771  0.0000000  2
   3396   3395   3397   3398     1  0.0000000  7.9496000  1
   3396   3395   3397   3398     1  180.0000771  9.6232000  2
   3400   3399   3402   3405     1  0.0000000  0.6508444  3
   3400   3399   3402   3403     1  0.0000000  0.6508444  3
   3400   3399   3402   3404     1  0.0000000  0.6508444  3
   3401   3399   3402   3405     1  0.0000000  0.6508444  3
   3401   3399   3402   3403     1  0.0000000  0.6508444  3
   3401   3399   3402   3404     1  0.0000000  0.6508444  3
   3402   3405   3407   3408     1  180.0000771  9.6232000  2
   3403   3402   3405   3406     1  0.0000000  3.3472000  1
   3403   3402   3405   3406     1  0.0000000  0.0000000  2
   3403   3402   3405   3406     1  180.0000771  0.3347200  3
   3403   3402   3405   3407     1  180.0000771  0.0000000  2
   3404   3402   3405   3406     1  0.0000000  3.3472000  1
   3404   3402   3405   3406     1  0.0000000  0.0000000  2
   3404   3402   3405   3406     1  180.0000771  0.3347200  3
   3404   3402   3405   3407     1  180.0000771  0.0000000  2
   3406   3405   3407   3408     1  0.0000000  7.9496000  1
   3406   3405   3407   3408     1  180.0000771  9.6232000  2
   3410   3413   3416   3417     1  0.0000000  0.6508444  3
   3410   3413   3416   3418     1  0.0000000  0.6508444  3
   3411   3410   3413   3416     1  0.0000000  0.6508444  3
   3411   3410   3413   3414     1  0.0000000  0.6508444  3
   3411   3410   3413   3415     1  0.0000000  0.6508444  3
   3412   3410   3413   3416     1  0.0000000  0.6508444  3
   3412   3410   3413   3414     1  0.0000000  0.6508444  3
   3412   3410   3413   3415     1  0.0000000  0.6508444  3
   3414   3413   3410   3440     1  0.0000000  1.0460000  1
   3414   3413   3410   3440     1  0.0000000  0.0000000  3
   3414   3413   3416   3419     1  0.0000000  0.6508444  3
   3414   3413   3416   3417     1  0.0000000  0.6508444  3
   3414   3413   3416   3418     1  0.0000000  0.6508444  3
   3415   3413   3410   3440     1  0.0000000  1.0460000  1
   3415   3413   3410   3440     1  0.0000000  0.0000000  3
   3415   3413   3416   3419     1  0.0000000  0.6508444  3
   3415   3413   3416   3417     1  0.0000000  0.6508444  3
   3415   3413   3416   3418     1  0.0000000  0.6508444  3
   3416   3419   3420   3421     1  0.0000000  1.2552000  3
   3416   3419   3420   3422     1  0.0000000  1.2552000  3
   3416   3419   3430   3431     1  0.0000000  1.2552000  3
   3416   3419   3430   3432     1  0.0000000  1.2552000  3
   3417   3416   3419   3420     1  0.0000000  1.2552000  3
   3417   3416   3419   3430     1  0.0000000  1.2552000  3
   3418   3416   3419   3420     1  0.0000000  1.2552000  3
   3418   3416   3419   3430     1  0.0000000  1.2552000  3
   3419   3420   3423   3424     1  0.0000000  0.6508444  3
   3419   3420   3423   3425     1  0.0000000  0.6508444  3
   3419   3430   3433   3434     1  0.0000000  0.6508444  3
   3419   3430   3433   3435     1  0.0000000  0.6508444  3
   3420   3419   3430   3431     1  0.0000000  1.2552000  3
   3420   3419   3430   3432     1  0.0000000  1.2552000  3
   3421   3420   3419   3430     1  0.0000000  1.2552000  3
   3421   3420   3423   3426     1  0.0000000  0.6508444  3
   3421   3420   3423   3424     1  0.0000000  0.6508444  3
   3421   3420   3423   3425     1  0.0000000  0.6508444  3
   3422   3420   3419   3430     1  0.0000000  1.2552000  3
   3422   3420   3423   3426     1  0.0000000  0.6508444  3
   3422   3420   3423   3424     1  0.0000000  0.6508444  3
   3422   3420   3423   3425     1  0.0000000  0.6508444  3
   3423   3426   3428   3429     1  180.0000771  9.6232000  2
   3424   3423   3426   3427     1  0.0000000  3.3472000  1
   3424   3423   3426   3427     1  0.0000000  0.0000000  2
   3424   3423   3426   3427     1  180.0000771  0.3347200  3
   3424   3423   3426   3428     1  180.0000771  0.0000000  2
   3425   3423   3426   3427     1  0.0000000  3.3472000  1
   3425   3423   3426   3427     1  0.0000000  0.0000000  2
   3425   3423   3426   3427     1  180.0000771  0.3347200  3
   3425   3423   3426   3428     1  180.0000771  0.0000000  2
   3427   3426   3428   3429     1  0.0000000  7.9496000  1
   3427   3426   3428   3429     1  180.0000771  9.6232000  2
   3431   3430   3433   3436     1  0.0000000  0.6508444  3
   3431   3430   3433   3434     1  0.0000000  0.6508444  3
   3431   3430   3433   3435     1  0.0000000  0.6508444  3
   3432   3430   3433   3436     1  0.0000000  0.6508444  3
   3432   3430   3433   3434     1  0.0000000  0.6508444  3
   3432   3430   3433   3435     1  0.0000000  0.6508444  3
   3433   3436   3438   3439     1  180.0000771  9.6232000  2
   3434   3433   3436   3437     1  0.0000000  3.3472000  1
   3434   3433   3436   3437     1  0.0000000  0.0000000  2
   3434   3433   3436   3437     1  180.0000771  0.3347200  3
   3434   3433   3436   3438     1  180.0000771  0.0000000  2
   3435   3433   3436   3437     1  0.0000000  3.3472000  1
   3435   3433   3436   3437     1  0.0000000  0.0000000  2
   3435   3433   3436   3437     1  180.0000771  0.3347200  3
   3435   3433   3436   3438     1  180.0000771  0.0000000  2
   3437   3436   3438   3439     1  0.0000000  7.9496000  1
   3437   3436   3438   3439     1  180.0000771  9.6232000  2
   3441   3444   3447   3448     1  0.0000000  0.6508444  3
   3441   3444   3447   3449     1  0.0000000  0.6508444  3
   3442   3441   3444   3447     1  0.0000000  0.6508444  3
   3442   3441   3444   3445     1  0.0000000  0.6508444  3
   3442   3441   3444   3446     1  0.0000000  0.6508444  3
   3443   3441   3444   3447     1  0.0000000  0.6508444  3
   3443   3441   3444   3445     1  0.0000000  0.6508444  3
   3443   3441   3444   3446     1  0.0000000  0.6508444  3
   3445   3444   3447   3450     1  0.0000000  0.6508444  3
   3445   3444   3447   3448     1  0.0000000  0.6508444  3
   3445   3444   3447   3449     1  0.0000000  0.6508444  3
   3445   3444   3441   3471     1  0.0000000  1.0460000  1
   3445   3444   3441   3471     1  0.0000000  0.0000000  3
   3446   3444   3447   3450     1  0.0000000  0.6508444  3
   3446   3444   3447   3448     1  0.0000000  0.6508444  3
   3446   3444   3447   3449     1  0.0000000  0.6508444  3
   3446   3444   3441   3471     1  0.0000000  1.0460000  1
   3446   3444   3441   3471     1  0.0000000  0.0000000  3
   3447   3450   3451   3452     1  0.0000000  1.2552000  3
   3447   3450   3451   3453     1  0.0000000  1.2552000  3
   3447   3450   3461   3462     1  0.0000000  1.2552000  3
   3447   3450   3461   3463     1  0.0000000  1.2552000  3
   3448   3447   3450   3451     1  0.0000000  1.2552000  3
   3448   3447   3450   3461     1  0.0000000  1.2552000  3
   3449   3447   3450   3451     1  0.0000000  1.2552000  3
   3449   3447   3450   3461     1  0.0000000  1.2552000  3
   3450   3451   3454   3455     1  0.0000000  0.6508444  3
   3450   3451   3454   3456     1  0.0000000  0.6508444  3
   3450   3461   3464   3465     1  0.0000000  0.6508444  3
   3450   3461   3464   3466     1  0.0000000  0.6508444  3
   3451   3450   3461   3462     1  0.0000000  1.2552000  3
   3451   3450   3461   3463     1  0.0000000  1.2552000  3
   3452   3451   3454   3457     1  0.0000000  0.6508444  3
   3452   3451   3454   3455     1  0.0000000  0.6508444  3
   3452   3451   3454   3456     1  0.0000000  0.6508444  3
   3452   3451   3450   3461     1  0.0000000  1.2552000  3
   3453   3451   3454   3457     1  0.0000000  0.6508444  3
   3453   3451   3454   3455     1  0.0000000  0.6508444  3
   3453   3451   3454   3456     1  0.0000000  0.6508444  3
   3453   3451   3450   3461     1  0.0000000  1.2552000  3
   3454   3457   3459   3460     1  180.0000771  9.6232000  2
   3455   3454   3457   3458     1  0.0000000  3.3472000  1
   3455   3454   3457   3458     1  0.0000000  0.0000000  2
   3455   3454   3457   3458     1  180.0000771  0.3347200  3
   3455   3454   3457   3459     1  180.0000771  0.0000000  2
   3456   3454   3457   3458     1  0.0000000  3.3472000  1
   3456   3454   3457   3458     1  0.0000000  0.0000000  2
   3456   3454   3457   3458     1  180.0000771  0.3347200  3
   3456   3454   3457   3459     1  180.0000771  0.0000000  2
   3458   3457   3459   3460     1  0.0000000  7.9496000  1
   3458   3457   3459   3460     1  180.0000771  9.6232000  2
   3462   3461   3464   3467     1  0.0000000  0.6508444  3
   3462   3461   3464   3465     1  0.0000000  0.6508444  3
   3462   3461   3464   3466     1  0.0000000  0.6508444  3
   3463   3461   3464   3467     1  0.0000000  0.6508444  3
   3463   3461   3464   3465     1  0.0000000  0.6508444  3
   3463   3461   3464   3466     1  0.0000000  0.6508444  3
   3464   3467   3469   3470     1  180.0000771  9.6232000  2
   3465   3464   3467   3468     1  0.0000000  3.3472000  1
   3465   3464   3467   3468     1  0.0000000  0.0000000  2
   3465   3464   3467   3468     1  180.0000771  0.3347200  3
   3465   3464   3467   3469     1  180.0000771  0.0000000  2
   3466   3464   3467   3468     1  0.0000000  3.3472000  1
   3466   3464   3467   3468     1  0.0000000  0.0000000  2
   3466   3464   3467   3468     1  180.0000771  0.3347200  3
   3466   3464   3467   3469     1  180.0000771  0.0000000  2
   3468   3467   3469   3470     1  0.0000000  7.9496000  1
   3468   3467   3469   3470     1  180.0000771  9.6232000  2
   3472   3475   3478   3479     1  0.0000000  0.6508444  3
   3472   3475   3478   3480     1  0.0000000  0.6508444  3
   3473   3472   3475   3478     1  0.0000000  0.6508444  3
   3473   3472   3475   3476     1  0.0000000  0.6508444  3
   3473   3472   3475   3477     1  0.0000000  0.6508444  3
   3474   3472   3475   3478     1  0.0000000  0.6508444  3
   3474   3472   3475   3476     1  0.0000000  0.6508444  3
   3474   3472   3475   3477     1  0.0000000  0.6508444  3
   3476   3475   3472   3502     1  0.0000000  1.0460000  1
   3476   3475   3472   3502     1  0.0000000  0.0000000  3
   3476   3475   3478   3481     1  0.0000000  0.6508444  3
   3476   3475   3478   3479     1  0.0000000  0.6508444  3
   3476   3475   3478   3480     1  0.0000000  0.6508444  3
   3477   3475   3472   3502     1  0.0000000  1.0460000  1
   3477   3475   3472   3502     1  0.0000000  0.0000000  3
   3477   3475   3478   3481     1  0.0000000  0.6508444  3
   3477   3475   3478   3479     1  0.0000000  0.6508444  3
   3477   3475   3478   3480     1  0.0000000  0.6508444  3
   3478   3481   3482   3483     1  0.0000000  1.2552000  3
   3478   3481   3482   3484     1  0.0000000  1.2552000  3
   3478   3481   3492   3493     1  0.0000000  1.2552000  3
   3478   3481   3492   3494     1  0.0000000  1.2552000  3
   3479   3478   3481   3482     1  0.0000000  1.2552000  3
   3479   3478   3481   3492     1  0.0000000  1.2552000  3
   3480   3478   3481   3482     1  0.0000000  1.2552000  3
   3480   3478   3481   3492     1  0.0000000  1.2552000  3
   3481   3482   3485   3486     1  0.0000000  0.6508444  3
   3481   3482   3485   3487     1  0.0000000  0.6508444  3
   3481   3492   3495   3496     1  0.0000000  0.6508444  3
   3481   3492   3495   3497     1  0.0000000  0.6508444  3
   3482   3481   3492   3493     1  0.0000000  1.2552000  3
   3482   3481   3492   3494     1  0.0000000  1.2552000  3
   3483   3482   3481   3492     1  0.0000000  1.2552000  3
   3483   3482   3485   3488     1  0.0000000  0.6508444  3
   3483   3482   3485   3486     1  0.0000000  0.6508444  3
   3483   3482   3485   3487     1  0.0000000  0.6508444  3
   3484   3482   3481   3492     1  0.0000000  1.2552000  3
   3484   3482   3485   3488     1  0.0000000  0.6508444  3
   3484   3482   3485   3486     1  0.0000000  0.6508444  3
   3484   3482   3485   3487     1  0.0000000  0.6508444  3
   3485   3488   3490   3491     1  180.0000771  9.6232000  2
   3486   3485   3488   3489     1  0.0000000  3.3472000  1
   3486   3485   3488   3489     1  0.0000000  0.0000000  2
   3486   3485   3488   3489     1  180.0000771  0.3347200  3
   3486   3485   3488   3490     1  180.0000771  0.0000000  2
   3487   3485   3488   3489     1  0.0000000  3.3472000  1
   3487   3485   3488   3489     1  0.0000000  0.0000000  2
   3487   3485   3488   3489     1  180.0000771  0.3347200  3
   3487   3485   3488   3490     1  180.0000771  0.0000000  2
   3489   3488   3490   3491     1  0.0000000  7.9496000  1
   3489   3488   3490   3491     1  180.0000771  9.6232000  2
   3493   3492   3495   3498     1  0.0000000  0.6508444  3
   3493   3492   3495   3496     1  0.0000000  0.6508444  3
   3493   3492   3495   3497     1  0.0000000  0.6508444  3
   3494   3492   3495   3498     1  0.0000000  0.6508444  3
   3494   3492   3495   3496     1  0.0000000  0.6508444  3
   3494   3492   3495   3497     1  0.0000000  0.6508444  3
   3495   3498   3500   3501     1  180.0000771  9.6232000  2
   3496   3495   3498   3499     1  0.0000000  3.3472000  1
   3496   3495   3498   3499     1  0.0000000  0.0000000  2
   3496   3495   3498   3499     1  180.0000771  0.3347200  3
   3496   3495   3498   3500     1  180.0000771  0.0000000  2
   3497   3495   3498   3499     1  0.0000000  3.3472000  1
   3497   3495   3498   3499     1  0.0000000  0.0000000  2
   3497   3495   3498   3499     1  180.0000771  0.3347200  3
   3497   3495   3498   3500     1  180.0000771  0.0000000  2
   3499   3498   3500   3501     1  0.0000000  7.9496000  1
   3499   3498   3500   3501     1  180.0000771  9.6232000  2
   3503   3506   3509   3510     1  0.0000000  0.6508444  3
   3503   3506   3509   3511     1  0.0000000  0.6508444  3
   3504   3503   3506   3509     1  0.0000000  0.6508444  3
   3504   3503   3506   3507     1  0.0000000  0.6508444  3
   3504   3503   3506   3508     1  0.0000000  0.6508444  3
   3505   3503   3506   3509     1  0.0000000  0.6508444  3
   3505   3503   3506   3507     1  0.0000000  0.6508444  3
   3505   3503   3506   3508     1  0.0000000  0.6508444  3
   3507   3506   3509   3512     1  0.0000000  0.6508444  3
   3507   3506   3509   3510     1  0.0000000  0.6508444  3
   3507   3506   3509   3511     1  0.0000000  0.6508444  3
   3507   3506   3503   3533     1  0.0000000  1.0460000  1
   3507   3506   3503   3533     1  0.0000000  0.0000000  3
   3508   3506   3509   3512     1  0.0000000  0.6508444  3
   3508   3506   3509   3510     1  0.0000000  0.6508444  3
   3508   3506   3509   3511     1  0.0000000  0.6508444  3
   3508   3506   3503   3533     1  0.0000000  1.0460000  1
   3508   3506   3503   3533     1  0.0000000  0.0000000  3
   3509   3512   3513   3514     1  0.0000000  1.2552000  3
   3509   3512   3513   3515     1  0.0000000  1.2552000  3
   3509   3512   3523   3524     1  0.0000000  1.2552000  3
   3509   3512   3523   3525     1  0.0000000  1.2552000  3
   3510   3509   3512   3513     1  0.0000000  1.2552000  3
   3510   3509   3512   3523     1  0.0000000  1.2552000  3
   3511   3509   3512   3513     1  0.0000000  1.2552000  3
   3511   3509   3512   3523     1  0.0000000  1.2552000  3
   3512   3513   3516   3517     1  0.0000000  0.6508444  3
   3512   3513   3516   3518     1  0.0000000  0.6508444  3
   3512   3523   3526   3527     1  0.0000000  0.6508444  3
   3512   3523   3526   3528     1  0.0000000  0.6508444  3
   3513   3512   3523   3524     1  0.0000000  1.2552000  3
   3513   3512   3523   3525     1  0.0000000  1.2552000  3
   3514   3513   3516   3519     1  0.0000000  0.6508444  3
   3514   3513   3516   3517     1  0.0000000  0.6508444  3
   3514   3513   3516   3518     1  0.0000000  0.6508444  3
   3514   3513   3512   3523     1  0.0000000  1.2552000  3
   3515   3513   3516   3519     1  0.0000000  0.6508444  3
   3515   3513   3516   3517     1  0.0000000  0.6508444  3
   3515   3513   3516   3518     1  0.0000000  0.6508444  3
   3515   3513   3512   3523     1  0.0000000  1.2552000  3
   3516   3519   3521   3522     1  180.0000771  9.6232000  2
   3517   3516   3519   3520     1  0.0000000  3.3472000  1
   3517   3516   3519   3520     1  0.0000000  0.0000000  2
   3517   3516   3519   3520     1  180.0000771  0.3347200  3
   3517   3516   3519   3521     1  180.0000771  0.0000000  2
   3518   3516   3519   3520     1  0.0000000  3.3472000  1
   3518   3516   3519   3520     1  0.0000000  0.0000000  2
   3518   3516   3519   3520     1  180.0000771  0.3347200  3
   3518   3516   3519   3521     1  180.0000771  0.0000000  2
   3520   3519   3521   3522     1  0.0000000  7.9496000  1
   3520   3519   3521   3522     1  180.0000771  9.6232000  2
   3524   3523   3526   3529     1  0.0000000  0.6508444  3
   3524   3523   3526   3527     1  0.0000000  0.6508444  3
   3524   3523   3526   3528     1  0.0000000  0.6508444  3
   3525   3523   3526   3529     1  0.0000000  0.6508444  3
   3525   3523   3526   3527     1  0.0000000  0.6508444  3
   3525   3523   3526   3528     1  0.0000000  0.6508444  3
   3526   3529   3531   3532     1  180.0000771  9.6232000  2
   3527   3526   3529   3530     1  0.0000000  3.3472000  1
   3527   3526   3529   3530     1  0.0000000  0.0000000  2
   3527   3526   3529   3530     1  180.0000771  0.3347200  3
   3527   3526   3529   3531     1  180.0000771  0.0000000  2
   3528   3526   3529   3530     1  0.0000000  3.3472000  1
   3528   3526   3529   3530     1  0.0000000  0.0000000  2
   3528   3526   3529   3530     1  180.0000771  0.3347200  3
   3528   3526   3529   3531     1  180.0000771  0.0000000  2
   3530   3529   3531   3532     1  0.0000000  7.9496000  1
   3530   3529   3531   3532     1  180.0000771  9.6232000  2
   3534   3537   3540   3541     1  0.0000000  0.6508444  3
   3534   3537   3540   3542     1  0.0000000  0.6508444  3
   3535   3534   3537   3540     1  0.0000000  0.6508444  3
   3535   3534   3537   3538     1  0.0000000  0.6508444  3
   3535   3534   3537   3539     1  0.0000000  0.6508444  3
   3536   3534   3537   3540     1  0.0000000  0.6508444  3
   3536   3534   3537   3538     1  0.0000000  0.6508444  3
   3536   3534   3537   3539     1  0.0000000  0.6508444  3
   3538   3537   3534   3564     1  0.0000000  1.0460000  1
   3538   3537   3534   3564     1  0.0000000  0.0000000  3
   3538   3537   3540   3543     1  0.0000000  0.6508444  3
   3538   3537   3540   3541     1  0.0000000  0.6508444  3
   3538   3537   3540   3542     1  0.0000000  0.6508444  3
   3539   3537   3534   3564     1  0.0000000  1.0460000  1
   3539   3537   3534   3564     1  0.0000000  0.0000000  3
   3539   3537   3540   3543     1  0.0000000  0.6508444  3
   3539   3537   3540   3541     1  0.0000000  0.6508444  3
   3539   3537   3540   3542     1  0.0000000  0.6508444  3
   3540   3543   3544   3545     1  0.0000000  1.2552000  3
   3540   3543   3544   3546     1  0.0000000  1.2552000  3
   3540   3543   3554   3555     1  0.0000000  1.2552000  3
   3540   3543   3554   3556     1  0.0000000  1.2552000  3
   3541   3540   3543   3544     1  0.0000000  1.2552000  3
   3541   3540   3543   3554     1  0.0000000  1.2552000  3
   3542   3540   3543   3544     1  0.0000000  1.2552000  3
   3542   3540   3543   3554     1  0.0000000  1.2552000  3
   3543   3544   3547   3548     1  0.0000000  0.6508444  3
   3543   3544   3547   3549     1  0.0000000  0.6508444  3
   3543   3554   3557   3558     1  0.0000000  0.6508444  3
   3543   3554   3557   3559     1  0.0000000  0.6508444  3
   3544   3543   3554   3555     1  0.0000000  1.2552000  3
   3544   3543   3554   3556     1  0.0000000  1.2552000  3
   3545   3544   3543   3554     1  0.0000000  1.2552000  3
   3545   3544   3547   3550     1  0.0000000  0.6508444  3
   3545   3544   3547   3548     1  0.0000000  0.6508444  3
   3545   3544   3547   3549     1  0.0000000  0.6508444  3
   3546   3544   3543   3554     1  0.0000000  1.2552000  3
   3546   3544   3547   3550     1  0.0000000  0.6508444  3
   3546   3544   3547   3548     1  0.0000000  0.6508444  3
   3546   3544   3547   3549     1  0.0000000  0.6508444  3
   3547   3550   3552   3553     1  180.0000771  9.6232000  2
   3548   3547   3550   3551     1  0.0000000  3.3472000  1
   3548   3547   3550   3551     1  0.0000000  0.0000000  2
   3548   3547   3550   3551     1  180.0000771  0.3347200  3
   3548   3547   3550   3552     1  180.0000771  0.0000000  2
   3549   3547   3550   3551     1  0.0000000  3.3472000  1
   3549   3547   3550   3551     1  0.0000000  0.0000000  2
   3549   3547   3550   3551     1  180.0000771  0.3347200  3
   3549   3547   3550   3552     1  180.0000771  0.0000000  2
   3551   3550   3552   3553     1  0.0000000  7.9496000  1
   3551   3550   3552   3553     1  180.0000771  9.6232000  2
   3555   3554   3557   3560     1  0.0000000  0.6508444  3
   3555   3554   3557   3558     1  0.0000000  0.6508444  3
   3555   3554   3557   3559     1  0.0000000  0.6508444  3
   3556   3554   3557   3560     1  0.0000000  0.6508444  3
   3556   3554   3557   3558     1  0.0000000  0.6508444  3
   3556   3554   3557   3559     1  0.0000000  0.6508444  3
   3557   3560   3562   3563     1  180.0000771  9.6232000  2
   3558   3557   3560   3561     1  0.0000000  3.3472000  1
   3558   3557   3560   3561     1  0.0000000  0.0000000  2
   3558   3557   3560   3561     1  180.0000771  0.3347200  3
   3558   3557   3560   3562     1  180.0000771  0.0000000  2
   3559   3557   3560   3561     1  0.0000000  3.3472000  1
   3559   3557   3560   3561     1  0.0000000  0.0000000  2
   3559   3557   3560   3561     1  180.0000771  0.3347200  3
   3559   3557   3560   3562     1  180.0000771  0.0000000  2
   3561   3560   3562   3563     1  0.0000000  7.9496000  1
   3561   3560   3562   3563     1  180.0000771  9.6232000  2
   3565   3568   3571   3572     1  0.0000000  0.6508444  3
   3565   3568   3571   3573     1  0.0000000  0.6508444  3
   3566   3565   3568   3571     1  0.0000000  0.6508444  3
   3566   3565   3568   3569     1  0.0000000  0.6508444  3
   3566   3565   3568   3570     1  0.0000000  0.6508444  3
   3567   3565   3568   3571     1  0.0000000  0.6508444  3
   3567   3565   3568   3569     1  0.0000000  0.6508444  3
   3567   3565   3568   3570     1  0.0000000  0.6508444  3
   3569   3568   3571   3574     1  0.0000000  0.6508444  3
   3569   3568   3571   3572     1  0.0000000  0.6508444  3
   3569   3568   3571   3573     1  0.0000000  0.6508444  3
   3569   3568   3565   3595     1  0.0000000  1.0460000  1
   3569   3568   3565   3595     1  0.0000000  0.0000000  3
   3570   3568   3571   3574     1  0.0000000  0.6508444  3
   3570   3568   3571   3572     1  0.0000000  0.6508444  3
   3570   3568   3571   3573     1  0.0000000  0.6508444  3
   3570   3568   3565   3595     1  0.0000000  1.0460000  1
   3570   3568   3565   3595     1  0.0000000  0.0000000  3
   3571   3574   3575   3576     1  0.0000000  1.2552000  3
   3571   3574   3575   3577     1  0.0000000  1.2552000  3
   3571   3574   3585   3586     1  0.0000000  1.2552000  3
   3571   3574   3585   3587     1  0.0000000  1.2552000  3
   3572   3571   3574   3575     1  0.0000000  1.2552000  3
   3572   3571   3574   3585     1  0.0000000  1.2552000  3
   3573   3571   3574   3575     1  0.0000000  1.2552000  3
   3573   3571   3574   3585     1  0.0000000  1.2552000  3
   3574   3575   3578   3579     1  0.0000000  0.6508444  3
   3574   3575   3578   3580     1  0.0000000  0.6508444  3
   3574   3585   3588   3589     1  0.0000000  0.6508444  3
   3574   3585   3588   3590     1  0.0000000  0.6508444  3
   3575   3574   3585   3586     1  0.0000000  1.2552000  3
   3575   3574   3585   3587     1  0.0000000  1.2552000  3
   3576   3575   3578   3581     1  0.0000000  0.6508444  3
   3576   3575   3578   3579     1  0.0000000  0.6508444  3
   3576   3575   3578   3580     1  0.0000000  0.6508444  3
   3576   3575   3574   3585     1  0.0000000  1.2552000  3
   3577   3575   3578   3581     1  0.0000000  0.6508444  3
   3577   3575   3578   3579     1  0.0000000  0.6508444  3
   3577   3575   3578   3580     1  0.0000000  0.6508444  3
   3577   3575   3574   3585     1  0.0000000  1.2552000  3
   3578   3581   3583   3584     1  180.0000771  9.6232000  2
   3579   3578   3581   3582     1  0.0000000  3.3472000  1
   3579   3578   3581   3582     1  0.0000000  0.0000000  2
   3579   3578   3581   3582     1  180.0000771  0.3347200  3
   3579   3578   3581   3583     1  180.0000771  0.0000000  2
   3580   3578   3581   3582     1  0.0000000  3.3472000  1
   3580   3578   3581   3582     1  0.0000000  0.0000000  2
   3580   3578   3581   3582     1  180.0000771  0.3347200  3
   3580   3578   3581   3583     1  180.0000771  0.0000000  2
   3582   3581   3583   3584     1  0.0000000  7.9496000  1
   3582   3581   3583   3584     1  180.0000771  9.6232000  2
   3586   3585   3588   3591     1  0.0000000  0.6508444  3
   3586   3585   3588   3589     1  0.0000000  0.6508444  3
   3586   3585   3588   3590     1  0.0000000  0.6508444  3
   3587   3585   3588   3591     1  0.0000000  0.6508444  3
   3587   3585   3588   3589     1  0.0000000  0.6508444  3
   3587   3585   3588   3590     1  0.0000000  0.6508444  3
   3588   3591   3593   3594     1  180.0000771  9.6232000  2
   3589   3588   3591   3592     1  0.0000000  3.3472000  1
   3589   3588   3591   3592     1  0.0000000  0.0000000  2
   3589   3588   3591   3592     1  180.0000771  0.3347200  3
   3589   3588   3591   3593     1  180.0000771  0.0000000  2
   3590   3588   3591   3592     1  0.0000000  3.3472000  1
   3590   3588   3591   3592     1  0.0000000  0.0000000  2
   3590   3588   3591   3592     1  180.0000771  0.3347200  3
   3590   3588   3591   3593     1  180.0000771  0.0000000  2
   3592   3591   3593   3594     1  0.0000000  7.9496000  1
   3592   3591   3593   3594     1  180.0000771  9.6232000  2
   3596   3599   3602   3603     1  0.0000000  0.6508444  3
   3596   3599   3602   3604     1  0.0000000  0.6508444  3
   3597   3596   3599   3602     1  0.0000000  0.6508444  3
   3597   3596   3599   3600     1  0.0000000  0.6508444  3
   3597   3596   3599   3601     1  0.0000000  0.6508444  3
   3598   3596   3599   3602     1  0.0000000  0.6508444  3
   3598   3596   3599   3600     1  0.0000000  0.6508444  3
   3598   3596   3599   3601     1  0.0000000  0.6508444  3
   3600   3599   3596   3626     1  0.0000000  1.0460000  1
   3600   3599   3596   3626     1  0.0000000  0.0000000  3
   3600   3599   3602   3605     1  0.0000000  0.6508444  3
   3600   3599   3602   3603     1  0.0000000  0.6508444  3
   3600   3599   3602   3604     1  0.0000000  0.6508444  3
   3601   3599   3596   3626     1  0.0000000  1.0460000  1
   3601   3599   3596   3626     1  0.0000000  0.0000000  3
   3601   3599   3602   3605     1  0.0000000  0.6508444  3
   3601   3599   3602   3603     1  0.0000000  0.6508444  3
   3601   3599   3602   3604     1  0.0000000  0.6508444  3
   3602   3605   3606   3607     1  0.0000000  1.2552000  3
   3602   3605   3606   3608     1  0.0000000  1.2552000  3
   3602   3605   3616   3617     1  0.0000000  1.2552000  3
   3602   3605   3616   3618     1  0.0000000  1.2552000  3
   3603   3602   3605   3606     1  0.0000000  1.2552000  3
   3603   3602   3605   3616     1  0.0000000  1.2552000  3
   3604   3602   3605   3606     1  0.0000000  1.2552000  3
   3604   3602   3605   3616     1  0.0000000  1.2552000  3
   3605   3606   3609   3610     1  0.0000000  0.6508444  3
   3605   3606   3609   3611     1  0.0000000  0.6508444  3
   3605   3616   3619   3620     1  0.0000000  0.6508444  3
   3605   3616   3619   3621     1  0.0000000  0.6508444  3
   3606   3605   3616   3617     1  0.0000000  1.2552000  3
   3606   3605   3616   3618     1  0.0000000  1.2552000  3
   3607   3606   3605   3616     1  0.0000000  1.2552000  3
   3607   3606   3609   3612     1  0.0000000  0.6508444  3
   3607   3606   3609   3610     1  0.0000000  0.6508444  3
   3607   3606   3609   3611     1  0.0000000  0.6508444  3
   3608   3606   3605   3616     1  0.0000000  1.2552000  3
   3608   3606   3609   3612     1  0.0000000  0.6508444  3
   3608   3606   3609   3610     1  0.0000000  0.6508444  3
   3608   3606   3609   3611     1  0.0000000  0.6508444  3
   3609   3612   3614   3615     1  180.0000771  9.6232000  2
   3610   3609   3612   3613     1  0.0000000  3.3472000  1
   3610   3609   3612   3613     1  0.0000000  0.0000000  2
   3610   3609   3612   3613     1  180.0000771  0.3347200  3
   3610   3609   3612   3614     1  180.0000771  0.0000000  2
   3611   3609   3612   3613     1  0.0000000  3.3472000  1
   3611   3609   3612   3613     1  0.0000000  0.0000000  2
   3611   3609   3612   3613     1  180.0000771  0.3347200  3
   3611   3609   3612   3614     1  180.0000771  0.0000000  2
   3613   3612   3614   3615     1  0.0000000  7.9496000  1
   3613   3612   3614   3615     1  180.0000771  9.6232000  2
   3617   3616   3619   3622     1  0.0000000  0.6508444  3
   3617   3616   3619   3620     1  0.0000000  0.6508444  3
   3617   3616   3619   3621     1  0.0000000  0.6508444  3
   3618   3616   3619   3622     1  0.0000000  0.6508444  3
   3618   3616   3619   3620     1  0.0000000  0.6508444  3
   3618   3616   3619   3621     1  0.0000000  0.6508444  3
   3619   3622   3624   3625     1  180.0000771  9.6232000  2
   3620   3619   3622   3623     1  0.0000000  3.3472000  1
   3620   3619   3622   3623     1  0.0000000  0.0000000  2
   3620   3619   3622   3623     1  180.0000771  0.3347200  3
   3620   3619   3622   3624     1  180.0000771  0.0000000  2
   3621   3619   3622   3623     1  0.0000000  3.3472000  1
   3621   3619   3622   3623     1  0.0000000  0.0000000  2
   3621   3619   3622   3623     1  180.0000771  0.3347200  3
   3621   3619   3622   3624     1  180.0000771  0.0000000  2
   3623   3622   3624   3625     1  0.0000000  7.9496000  1
   3623   3622   3624   3625     1  180.0000771  9.6232000  2
   3627   3630   3633   3634     1  0.0000000  0.6508444  3
   3627   3630   3633   3635     1  0.0000000  0.6508444  3
   3628   3627   3630   3633     1  0.0000000  0.6508444  3
   3628   3627   3630   3631     1  0.0000000  0.6508444  3
   3628   3627   3630   3632     1  0.0000000  0.6508444  3
   3629   3627   3630   3633     1  0.0000000  0.6508444  3
   3629   3627   3630   3631     1  0.0000000  0.6508444  3
   3629   3627   3630   3632     1  0.0000000  0.6508444  3
   3631   3630   3633   3636     1  0.0000000  0.6508444  3
   3631   3630   3633   3634     1  0.0000000  0.6508444  3
   3631   3630   3633   3635     1  0.0000000  0.6508444  3
   3631   3630   3627   3657     1  0.0000000  1.0460000  1
   3631   3630   3627   3657     1  0.0000000  0.0000000  3
   3632   3630   3633   3636     1  0.0000000  0.6508444  3
   3632   3630   3633   3634     1  0.0000000  0.6508444  3
   3632   3630   3633   3635     1  0.0000000  0.6508444  3
   3632   3630   3627   3657     1  0.0000000  1.0460000  1
   3632   3630   3627   3657     1  0.0000000  0.0000000  3
   3633   3636   3637   3638     1  0.0000000  1.2552000  3
   3633   3636   3637   3639     1  0.0000000  1.2552000  3
   3633   3636   3647   3648     1  0.0000000  1.2552000  3
   3633   3636   3647   3649     1  0.0000000  1.2552000  3
   3634   3633   3636   3637     1  0.0000000  1.2552000  3
   3634   3633   3636   3647     1  0.0000000  1.2552000  3
   3635   3633   3636   3637     1  0.0000000  1.2552000  3
   3635   3633   3636   3647     1  0.0000000  1.2552000  3
   3636   3637   3640   3641     1  0.0000000  0.6508444  3
   3636   3637   3640   3642     1  0.0000000  0.6508444  3
   3636   3647   3650   3651     1  0.0000000  0.6508444  3
   3636   3647   3650   3652     1  0.0000000  0.6508444  3
   3637   3636   3647   3648     1  0.0000000  1.2552000  3
   3637   3636   3647   3649     1  0.0000000  1.2552000  3
   3638   3637   3640   3643     1  0.0000000  0.6508444  3
   3638   3637   3640   3641     1  0.0000000  0.6508444  3
   3638   3637   3640   3642     1  0.0000000  0.6508444  3
   3638   3637   3636   3647     1  0.0000000  1.2552000  3
   3639   3637   3640   3643     1  0.0000000  0.6508444  3
   3639   3637   3640   3641     1  0.0000000  0.6508444  3
   3639   3637   3640   3642     1  0.0000000  0.6508444  3
   3639   3637   3636   3647     1  0.0000000  1.2552000  3
   3640   3643   3645   3646     1  180.0000771  9.6232000  2
   3641   3640   3643   3644     1  0.0000000  3.3472000  1
   3641   3640   3643   3644     1  0.0000000  0.0000000  2
   3641   3640   3643   3644     1  180.0000771  0.3347200  3
   3641   3640   3643   3645     1  180.0000771  0.0000000  2
   3642   3640   3643   3644     1  0.0000000  3.3472000  1
   3642   3640   3643   3644     1  0.0000000  0.0000000  2
   3642   3640   3643   3644     1  180.0000771  0.3347200  3
   3642   3640   3643   3645     1  180.0000771  0.0000000  2
   3644   3643   3645   3646     1  0.0000000  7.9496000  1
   3644   3643   3645   3646     1  180.0000771  9.6232000  2
   3648   3647   3650   3653     1  0.0000000  0.6508444  3
   3648   3647   3650   3651     1  0.0000000  0.6508444  3
   3648   3647   3650   3652     1  0.0000000  0.6508444  3
   3649   3647   3650   3653     1  0.0000000  0.6508444  3
   3649   3647   3650   3651     1  0.0000000  0.6508444  3
   3649   3647   3650   3652     1  0.0000000  0.6508444  3
   3650   3653   3655   3656     1  180.0000771  9.6232000  2
   3651   3650   3653   3654     1  0.0000000  3.3472000  1
   3651   3650   3653   3654     1  0.0000000  0.0000000  2
   3651   3650   3653   3654     1  180.0000771  0.3347200  3
   3651   3650   3653   3655     1  180.0000771  0.0000000  2
   3652   3650   3653   3654     1  0.0000000  3.3472000  1
   3652   3650   3653   3654     1  0.0000000  0.0000000  2
   3652   3650   3653   3654     1  180.0000771  0.3347200  3
   3652   3650   3653   3655     1  180.0000771  0.0000000  2
   3654   3653   3655   3656     1  0.0000000  7.9496000  1
   3654   3653   3655   3656     1  180.0000771  9.6232000  2
   3658   3661   3664   3665     1  0.0000000  0.6508444  3
   3658   3661   3664   3666     1  0.0000000  0.6508444  3
   3659   3658   3661   3664     1  0.0000000  0.6508444  3
   3659   3658   3661   3662     1  0.0000000  0.6508444  3
   3659   3658   3661   3663     1  0.0000000  0.6508444  3
   3660   3658   3661   3664     1  0.0000000  0.6508444  3
   3660   3658   3661   3662     1  0.0000000  0.6508444  3
   3660   3658   3661   3663     1  0.0000000  0.6508444  3
   3662   3661   3658   3688     1  0.0000000  1.0460000  1
   3662   3661   3658   3688     1  0.0000000  0.0000000  3
   3662   3661   3664   3667     1  0.0000000  0.6508444  3
   3662   3661   3664   3665     1  0.0000000  0.6508444  3
   3662   3661   3664   3666     1  0.0000000  0.6508444  3
   3663   3661   3658   3688     1  0.0000000  1.0460000  1
   3663   3661   3658   3688     1  0.0000000  0.0000000  3
   3663   3661   3664   3667     1  0.0000000  0.6508444  3
   3663   3661   3664   3665     1  0.0000000  0.6508444  3
   3663   3661   3664   3666     1  0.0000000  0.6508444  3
   3664   3667   3668   3669     1  0.0000000  1.2552000  3
   3664   3667   3668   3670     1  0.0000000  1.2552000  3
   3664   3667   3678   3679     1  0.0000000  1.2552000  3
   3664   3667   3678   3680     1  0.0000000  1.2552000  3
   3665   3664   3667   3668     1  0.0000000  1.2552000  3
   3665   3664   3667   3678     1  0.0000000  1.2552000  3
   3666   3664   3667   3668     1  0.0000000  1.2552000  3
   3666   3664   3667   3678     1  0.0000000  1.2552000  3
   3667   3668   3671   3672     1  0.0000000  0.6508444  3
   3667   3668   3671   3673     1  0.0000000  0.6508444  3
   3667   3678   3681   3682     1  0.0000000  0.6508444  3
   3667   3678   3681   3683     1  0.0000000  0.6508444  3
   3668   3667   3678   3679     1  0.0000000  1.2552000  3
   3668   3667   3678   3680     1  0.0000000  1.2552000  3
   3669   3668   3667   3678     1  0.0000000  1.2552000  3
   3669   3668   3671   3674     1  0.0000000  0.6508444  3
   3669   3668   3671   3672     1  0.0000000  0.6508444  3
   3669   3668   3671   3673     1  0.0000000  0.6508444  3
   3670   3668   3667   3678     1  0.0000000  1.2552000  3
   3670   3668   3671   3674     1  0.0000000  0.6508444  3
   3670   3668   3671   3672     1  0.0000000  0.6508444  3
   3670   3668   3671   3673     1  0.0000000  0.6508444  3
   3671   3674   3676   3677     1  180.0000771  9.6232000  2
   3672   3671   3674   3675     1  0.0000000  3.3472000  1
   3672   3671   3674   3675     1  0.0000000  0.0000000  2
   3672   3671   3674   3675     1  180.0000771  0.3347200  3
   3672   3671   3674   3676     1  180.0000771  0.0000000  2
   3673   3671   3674   3675     1  0.0000000  3.3472000  1
   3673   3671   3674   3675     1  0.0000000  0.0000000  2
   3673   3671   3674   3675     1  180.0000771  0.3347200  3
   3673   3671   3674   3676     1  180.0000771  0.0000000  2
   3675   3674   3676   3677     1  0.0000000  7.9496000  1
   3675   3674   3676   3677     1  180.0000771  9.6232000  2
   3679   3678   3681   3684     1  0.0000000  0.6508444  3
   3679   3678   3681   3682     1  0.0000000  0.6508444  3
   3679   3678   3681   3683     1  0.0000000  0.6508444  3
   3680   3678   3681   3684     1  0.0000000  0.6508444  3
   3680   3678   3681   3682     1  0.0000000  0.6508444  3
   3680   3678   3681   3683     1  0.0000000  0.6508444  3
   3681   3684   3686   3687     1  180.0000771  9.6232000  2
   3682   3681   3684   3685     1  0.0000000  3.3472000  1
   3682   3681   3684   3685     1  0.0000000  0.0000000  2
   3682   3681   3684   3685     1  180.0000771  0.3347200  3
   3682   3681   3684   3686     1  180.0000771  0.0000000  2
   3683   3681   3684   3685     1  0.0000000  3.3472000  1
   3683   3681   3684   3685     1  0.0000000  0.0000000  2
   3683   3681   3684   3685     1  180.0000771  0.3347200  3
   3683   3681   3684   3686     1  180.0000771  0.0000000  2
   3685   3684   3686   3687     1  0.0000000  7.9496000  1
   3685   3684   3686   3687     1  180.0000771  9.6232000  2
   3689   3692   3695   3696     1  0.0000000  0.6508444  3
   3689   3692   3695   3697     1  0.0000000  0.6508444  3
   3690   3689   3692   3695     1  0.0000000  0.6508444  3
   3690   3689   3692   3693     1  0.0000000  0.6508444  3
   3690   3689   3692   3694     1  0.0000000  0.6508444  3
   3691   3689   3692   3695     1  0.0000000  0.6508444  3
   3691   3689   3692   3693     1  0.0000000  0.6508444  3
   3691   3689   3692   3694     1  0.0000000  0.6508444  3
   3693   3692   3695   3698     1  0.0000000  0.6508444  3
   3693   3692   3695   3696     1  0.0000000  0.6508444  3
   3693   3692   3695   3697     1  0.0000000  0.6508444  3
   3693   3692   3689   3719     1  0.0000000  1.0460000  1
   3693   3692   3689   3719     1  0.0000000  0.0000000  3
   3694   3692   3695   3698     1  0.0000000  0.6508444  3
   3694   3692   3695   3696     1  0.0000000  0.6508444  3
   3694   3692   3695   3697     1  0.0000000  0.6508444  3
   3694   3692   3689   3719     1  0.0000000  1.0460000  1
   3694   3692   3689   3719     1  0.0000000  0.0000000  3
   3695   3698   3699   3700     1  0.0000000  1.2552000  3
   3695   3698   3699   3701     1  0.0000000  1.2552000  3
   3695   3698   3709   3710     1  0.0000000  1.2552000  3
   3695   3698   3709   3711     1  0.0000000  1.2552000  3
   3696   3695   3698   3699     1  0.0000000  1.2552000  3
   3696   3695   3698   3709     1  0.0000000  1.2552000  3
   3697   3695   3698   3699     1  0.0000000  1.2552000  3
   3697   3695   3698   3709     1  0.0000000  1.2552000  3
   3698   3699   3702   3703     1  0.0000000  0.6508444  3
   3698   3699   3702   3704     1  0.0000000  0.6508444  3
   3698   3709   3712   3713     1  0.0000000  0.6508444  3
   3698   3709   3712   3714     1  0.0000000  0.6508444  3
   3699   3698   3709   3710     1  0.0000000  1.2552000  3
   3699   3698   3709   3711     1  0.0000000  1.2552000  3
   3700   3699   3702   3705     1  0.0000000  0.6508444  3
   3700   3699   3702   3703     1  0.0000000  0.6508444  3
   3700   3699   3702   3704     1  0.0000000  0.6508444  3
   3700   3699   3698   3709     1  0.0000000  1.2552000  3
   3701   3699   3702   3705     1  0.0000000  0.6508444  3
   3701   3699   3702   3703     1  0.0000000  0.6508444  3
   3701   3699   3702   3704     1  0.0000000  0.6508444  3
   3701   3699   3698   3709     1  0.0000000  1.2552000  3
   3702   3705   3707   3708     1  180.0000771  9.6232000  2
   3703   3702   3705   3706     1  0.0000000  3.3472000  1
   3703   3702   3705   3706     1  0.0000000  0.0000000  2
   3703   3702   3705   3706     1  180.0000771  0.3347200  3
   3703   3702   3705   3707     1  180.0000771  0.0000000  2
   3704   3702   3705   3706     1  0.0000000  3.3472000  1
   3704   3702   3705   3706     1  0.0000000  0.0000000  2
   3704   3702   3705   3706     1  180.0000771  0.3347200  3
   3704   3702   3705   3707     1  180.0000771  0.0000000  2
   3706   3705   3707   3708     1  0.0000000  7.9496000  1
   3706   3705   3707   3708     1  180.0000771  9.6232000  2
   3710   3709   3712   3715     1  0.0000000  0.6508444  3
   3710   3709   3712   3713     1  0.0000000  0.6508444  3
   3710   3709   3712   3714     1  0.0000000  0.6508444  3
   3711   3709   3712   3715     1  0.0000000  0.6508444  3
   3711   3709   3712   3713     1  0.0000000  0.6508444  3
   3711   3709   3712   3714     1  0.0000000  0.6508444  3
   3712   3715   3717   3718     1  180.0000771  9.6232000  2
   3713   3712   3715   3716     1  0.0000000  3.3472000  1
   3713   3712   3715   3716     1  0.0000000  0.0000000  2
   3713   3712   3715   3716     1  180.0000771  0.3347200  3
   3713   3712   3715   3717     1  180.0000771  0.0000000  2
   3714   3712   3715   3716     1  0.0000000  3.3472000  1
   3714   3712   3715   3716     1  0.0000000  0.0000000  2
   3714   3712   3715   3716     1  180.0000771  0.3347200  3
   3714   3712   3715   3717     1  180.0000771  0.0000000  2
   3716   3715   3717   3718     1  0.0000000  7.9496000  1
   3716   3715   3717   3718     1  180.0000771  9.6232000  2
   3720   3723   3726   3727     1  0.0000000  0.6508444  3
   3720   3723   3726   3728     1  0.0000000  0.6508444  3
   3721   3720   3723   3726     1  0.0000000  0.6508444  3
   3721   3720   3723   3724     1  0.0000000  0.6508444  3
   3721   3720   3723   3725     1  0.0000000  0.6508444  3
   3722   3720   3723   3726     1  0.0000000  0.6508444  3
   3722   3720   3723   3724     1  0.0000000  0.6508444  3
   3722   3720   3723   3725     1  0.0000000  0.6508444  3
   3724   3723   3720   3750     1  0.0000000  1.0460000  1
   3724   3723   3720   3750     1  0.0000000  0.0000000  3
   3724   3723   3726   3729     1  0.0000000  0.6508444  3
   3724   3723   3726   3727     1  0.0000000  0.6508444  3
   3724   3723   3726   3728     1  0.0000000  0.6508444  3
   3725   3723   3720   3750     1  0.0000000  1.0460000  1
   3725   3723   3720   3750     1  0.0000000  0.0000000  3
   3725   3723   3726   3729     1  0.0000000  0.6508444  3
   3725   3723   3726   3727     1  0.0000000  0.6508444  3
   3725   3723   3726   3728     1  0.0000000  0.6508444  3
   3726   3729   3730   3731     1  0.0000000  1.2552000  3
   3726   3729   3730   3732     1  0.0000000  1.2552000  3
   3726   3729   3740   3741     1  0.0000000  1.2552000  3
   3726   3729   3740   3742     1  0.0000000  1.2552000  3
   3727   3726   3729   3730     1  0.0000000  1.2552000  3
   3727   3726   3729   3740     1  0.0000000  1.2552000  3
   3728   3726   3729   3730     1  0.0000000  1.2552000  3
   3728   3726   3729   3740     1  0.0000000  1.2552000  3
   3729   3730   3733   3734     1  0.0000000  0.6508444  3
   3729   3730   3733   3735     1  0.0000000  0.6508444  3
   3729   3740   3743   3744     1  0.0000000  0.6508444  3
   3729   3740   3743   3745     1  0.0000000  0.6508444  3
   3730   3729   3740   3741     1  0.0000000  1.2552000  3
   3730   3729   3740   3742     1  0.0000000  1.2552000  3
   3731   3730   3729   3740     1  0.0000000  1.2552000  3
   3731   3730   3733   3736     1  0.0000000  0.6508444  3
   3731   3730   3733   3734     1  0.0000000  0.6508444  3
   3731   3730   3733   3735     1  0.0000000  0.6508444  3
   3732   3730   3729   3740     1  0.0000000  1.2552000  3
   3732   3730   3733   3736     1  0.0000000  0.6508444  3
   3732   3730   3733   3734     1  0.0000000  0.6508444  3
   3732   3730   3733   3735     1  0.0000000  0.6508444  3
   3733   3736   3738   3739     1  180.0000771  9.6232000  2
   3734   3733   3736   3737     1  0.0000000  3.3472000  1
   3734   3733   3736   3737     1  0.0000000  0.0000000  2
   3734   3733   3736   3737     1  180.0000771  0.3347200  3
   3734   3733   3736   3738     1  180.0000771  0.0000000  2
   3735   3733   3736   3737     1  0.0000000  3.3472000  1
   3735   3733   3736   3737     1  0.0000000  0.0000000  2
   3735   3733   3736   3737     1  180.0000771  0.3347200  3
   3735   3733   3736   3738     1  180.0000771  0.0000000  2
   3737   3736   3738   3739     1  0.0000000  7.9496000  1
   3737   3736   3738   3739     1  180.0000771  9.6232000  2
   3741   3740   3743   3746     1  0.0000000  0.6508444  3
   3741   3740   3743   3744     1  0.0000000  0.6508444  3
   3741   3740   3743   3745     1  0.0000000  0.6508444  3
   3742   3740   3743   3746     1  0.0000000  0.6508444  3
   3742   3740   3743   3744     1  0.0000000  0.6508444  3
   3742   3740   3743   3745     1  0.0000000  0.6508444  3
   3743   3746   3748   3749     1  180.0000771  9.6232000  2
   3744   3743   3746   3747     1  0.0000000  3.3472000  1
   3744   3743   3746   3747     1  0.0000000  0.0000000  2
   3744   3743   3746   3747     1  180.0000771  0.3347200  3
   3744   3743   3746   3748     1  180.0000771  0.0000000  2
   3745   3743   3746   3747     1  0.0000000  3.3472000  1
   3745   3743   3746   3747     1  0.0000000  0.0000000  2
   3745   3743   3746   3747     1  180.0000771  0.3347200  3
   3745   3743   3746   3748     1  180.0000771  0.0000000  2
   3747   3746   3748   3749     1  0.0000000  7.9496000  1
   3747   3746   3748   3749     1  180.0000771  9.6232000  2
   3751   3754   3757   3758     1  0.0000000  0.6508444  3
   3751   3754   3757   3759     1  0.0000000  0.6508444  3
   3752   3751   3754   3757     1  0.0000000  0.6508444  3
   3752   3751   3754   3755     1  0.0000000  0.6508444  3
   3752   3751   3754   3756     1  0.0000000  0.6508444  3
   3753   3751   3754   3757     1  0.0000000  0.6508444  3
   3753   3751   3754   3755     1  0.0000000  0.6508444  3
   3753   3751   3754   3756     1  0.0000000  0.6508444  3
   3755   3754   3757   3760     1  0.0000000  0.6508444  3
   3755   3754   3757   3758     1  0.0000000  0.6508444  3
   3755   3754   3757   3759     1  0.0000000  0.6508444  3
   3755   3754   3751   3781     1  0.0000000  1.0460000  1
   3755   3754   3751   3781     1  0.0000000  0.0000000  3
   3756   3754   3757   3760     1  0.0000000  0.6508444  3
   3756   3754   3757   3758     1  0.0000000  0.6508444  3
   3756   3754   3757   3759     1  0.0000000  0.6508444  3
   3756   3754   3751   3781     1  0.0000000  1.0460000  1
   3756   3754   3751   3781     1  0.0000000  0.0000000  3
   3757   3760   3761   3762     1  0.0000000  1.2552000  3
   3757   3760   3761   3763     1  0.0000000  1.2552000  3
   3757   3760   3771   3772     1  0.0000000  1.2552000  3
   3757   3760   3771   3773     1  0.0000000  1.2552000  3
   3758   3757   3760   3761     1  0.0000000  1.2552000  3
   3758   3757   3760   3771     1  0.0000000  1.2552000  3
   3759   3757   3760   3761     1  0.0000000  1.2552000  3
   3759   3757   3760   3771     1  0.0000000  1.2552000  3
   3760   3761   3764   3765     1  0.0000000  0.6508444  3
   3760   3761   3764   3766     1  0.0000000  0.6508444  3
   3760   3771   3774   3775     1  0.0000000  0.6508444  3
   3760   3771   3774   3776     1  0.0000000  0.6508444  3
   3761   3760   3771   3772     1  0.0000000  1.2552000  3
   3761   3760   3771   3773     1  0.0000000  1.2552000  3
   3762   3761   3764   3767     1  0.0000000  0.6508444  3
   3762   3761   3764   3765     1  0.0000000  0.6508444  3
   3762   3761   3764   3766     1  0.0000000  0.6508444  3
   3762   3761   3760   3771     1  0.0000000  1.2552000  3
   3763   3761   3764   3767     1  0.0000000  0.6508444  3
   3763   3761   3764   3765     1  0.0000000  0.6508444  3
   3763   3761   3764   3766     1  0.0000000  0.6508444  3
   3763   3761   3760   3771     1  0.0000000  1.2552000  3
   3764   3767   3769   3770     1  180.0000771  9.6232000  2
   3765   3764   3767   3768     1  0.0000000  3.3472000  1
   3765   3764   3767   3768     1  0.0000000  0.0000000  2
   3765   3764   3767   3768     1  180.0000771  0.3347200  3
   3765   3764   3767   3769     1  180.0000771  0.0000000  2
   3766   3764   3767   3768     1  0.0000000  3.3472000  1
   3766   3764   3767   3768     1  0.0000000  0.0000000  2
   3766   3764   3767   3768     1  180.0000771  0.3347200  3
   3766   3764   3767   3769     1  180.0000771  0.0000000  2
   3768   3767   3769   3770     1  0.0000000  7.9496000  1
   3768   3767   3769   3770     1  180.0000771  9.6232000  2
   3772   3771   3774   3777     1  0.0000000  0.6508444  3
   3772   3771   3774   3775     1  0.0000000  0.6508444  3
   3772   3771   3774   3776     1  0.0000000  0.6508444  3
   3773   3771   3774   3777     1  0.0000000  0.6508444  3
   3773   3771   3774   3775     1  0.0000000  0.6508444  3
   3773   3771   3774   3776     1  0.0000000  0.6508444  3
   3774   3777   3779   3780     1  180.0000771  9.6232000  2
   3775   3774   3777   3778     1  0.0000000  3.3472000  1
   3775   3774   3777   3778     1  0.0000000  0.0000000  2
   3775   3774   3777   3778     1  180.0000771  0.3347200  3
   3775   3774   3777   3779     1  180.0000771  0.0000000  2
   3776   3774   3777   3778     1  0.0000000  3.3472000  1
   3776   3774   3777   3778     1  0.0000000  0.0000000  2
   3776   3774   3777   3778     1  180.0000771  0.3347200  3
   3776   3774   3777   3779     1  180.0000771  0.0000000  2
   3778   3777   3779   3780     1  0.0000000  7.9496000  1
   3778   3777   3779   3780     1  180.0000771  9.6232000  2

;[ system ]
;; Name
;Generic title
;
;[ molecules ]
;; Compound       #mols
;system1              1
